# vtk DataFile Version 2.0
Unstructured Grid Example
ASCII
DATASET UNSTRUCTURED_GRID

POINTS 16 float
0.1 0.005 0
0.0546918 0.005 0
0.0226541 0.005 0
0 0.005 0
0.1 -0.0403082 0
0.0623899 -0.0326101 0
0.0303522 -0.0253522 0
0 -0.0176541 0
0.1 -0.0723459 0
0.0696478 -0.0646478 0
0.0376101 -0.0573899 0
0 -0.0496918 0
0.1 -0.095 0
0.0773459 -0.095 0
0.0453082 -0.095 0
0 -0.095 0

CELLS 9 45
4 0 1 5 4
4 1 2 6 5
4 2 3 7 6
4 4 5 9 8
4 5 6 10 9
4 6 7 11 10
4 8 9 13 12
4 9 10 14 13
4 10 11 15 14

CELL_TYPES 9
9
9
9
9
9
9
9
9
9

POINT_DATA 16
SCALARS Temp float 1
LOOKUP_TABLE default
741.041418
599.110772
642.300376
741.219105
599.110771
440.560145
476.261036
642.300380
642.300375
476.261025
440.560151
599.110771
741.219113
642.300376
599.110770
741.041413
