# vtk DataFile Version 2.0
Unstructured Grid Example
ASCII
DATASET UNSTRUCTURED_GRID

POINTS 16 float
0.1 0.005 0
0.0666667 0.005 0
0.0333333 0.005 0
0 0.005 0
0.1 -0.0283333 0
0.0666667 -0.0283333 0
0.0333333 -0.0283333 0
0 -0.0283333 0
0.1 -0.0616667 0
0.0666667 -0.0616667 0
0.0333333 -0.0616667 0
0 -0.0616667 0
0.1 -0.095 0
0.0666667 -0.095 0
0.0333333 -0.095 0
0 -0.095 0

CELLS 9 45
4 0 1 5 4
4 1 2 6 5
4 2 3 7 6
4 4 5 9 8
4 5 6 10 9
4 6 7 11 10
4 8 9 13 12
4 9 10 14 13
4 10 11 15 14

CELL_TYPES 9
9
9
9
9
9
9
9
9
9

POINT_DATA 16
SCALARS Temp float 1
LOOKUP_TABLE default
783.382859
668.364308
668.364291
783.382844
668.364298
521.586299
521.586289
668.364296
668.364301
521.586304
521.586297
668.364310
783.382849
668.364301
668.364296
783.382861
