# vtk DataFile Version 2.0
Unstructured Grid Example
ASCII
DATASET UNSTRUCTURED_GRID

POINTS 16 float
0.1 0.005 0
0.0666667 0.005 0
0.0333333 0.005 0
0 0.005 0
0.1 -0.0283333 0
0.0666667 -0.0283333 0
0.0333333 -0.0283333 0
0 -0.0283333 0
0.1 -0.0616667 0
0.0666667 -0.0616667 0
0.0333333 -0.0616667 0
0 -0.0616667 0
0.1 -0.095 0
0.0666667 -0.095 0
0.0333333 -0.095 0
0 -0.095 0

CELLS 9 45
4 0 1 5 4
4 1 2 6 5
4 2 3 7 6
4 4 5 9 8
4 5 6 10 9
4 6 7 11 10
4 8 9 13 12
4 9 10 14 13
4 10 11 15 14

CELL_TYPES 9
9
9
9
9
9
9
9
9
9

POINT_DATA 16
SCALARS Temp float 1
LOOKUP_TABLE default
587.372681
434.597346
434.597325
587.372660
434.597334
242.800860
242.800848
434.597330
434.597339
242.800867
242.800857
434.597347
587.372669
434.597339
434.597331
587.372682
