# vtk DataFile Version 2.0
Unstructured Grid Example
ASCII
DATASET UNSTRUCTURED_GRID

POINTS 16 float
0.1 0.005 0
0.0666667 0.005 0
0.0333333 0.005 0
0 0.005 0
0.1 -0.0283333 0
0.0666667 -0.0283333 0
0.0333333 -0.0283333 0
0 -0.0283333 0
0.1 -0.0616667 0
0.0666667 -0.0616667 0
0.0333333 -0.0616667 0
0 -0.0616667 0
0.1 -0.095 0
0.0666667 -0.095 0
0.0333333 -0.095 0
0 -0.095 0

CELLS 9 45
4 0 1 5 4
4 1 2 6 5
4 2 3 7 6
4 4 5 9 8
4 5 6 10 9
4 6 7 11 10
4 8 9 13 12
4 9 10 14 13
4 10 11 15 14

CELL_TYPES 9
9
9
9
9
9
9
9
9
9

POINT_DATA 16
SCALARS Temp float 1
LOOKUP_TABLE default
881.057640
792.716983
792.716970
881.057629
792.716975
679.907632
679.907623
792.716974
792.716977
679.907635
679.907630
792.716985
881.057632
792.716977
792.716973
881.057642
