# vtk DataFile Version 2.0
Unstructured Grid Example
ASCII
DATASET UNSTRUCTURED_GRID

POINTS 961 float
0.1 0.005 0
0.0966667 0.005 0
0.0933333 0.005 0
0.09 0.005 0
0.0866667 0.005 0
0.0833333 0.005 0
0.08 0.005 0
0.0766667 0.005 0
0.0733333 0.005 0
0.07 0.005 0
0.0666667 0.005 0
0.0633333 0.005 0
0.06 0.005 0
0.0566667 0.005 0
0.0533333 0.005 0
0.05 0.005 0
0.0466667 0.005 0
0.0433333 0.005 0
0.04 0.005 0
0.0366667 0.005 0
0.0333333 0.005 0
0.03 0.005 0
0.0266667 0.005 0
0.0233333 0.005 0
0.02 0.005 0
0.0166667 0.005 0
0.0133333 0.005 0
0.01 0.005 0
0.00666667 0.005 0
0.00333333 0.005 0
0 0.005 0
0.1 0.00166667 0
0.0966667 0.00166667 0
0.0933333 0.00166667 0
0.09 0.00166667 0
0.0866667 0.00166667 0
0.0833333 0.00166667 0
0.08 0.00166667 0
0.0766667 0.00166667 0
0.0733333 0.00166667 0
0.07 0.00166667 0
0.0666667 0.00166667 0
0.0633333 0.00166667 0
0.06 0.00166667 0
0.0566667 0.00166667 0
0.0533333 0.00166667 0
0.05 0.00166667 0
0.0466667 0.00166667 0
0.0433333 0.00166667 0
0.04 0.00166667 0
0.0366667 0.00166667 0
0.0333333 0.00166667 0
0.03 0.00166667 0
0.0266667 0.00166667 0
0.0233333 0.00166667 0
0.02 0.00166667 0
0.0166667 0.00166667 0
0.0133333 0.00166667 0
0.01 0.00166667 0
0.00666667 0.00166667 0
0.00333333 0.00166667 0
0 0.00166667 0
0.1 -0.00166667 0
0.0966667 -0.00166667 0
0.0933333 -0.00166667 0
0.09 -0.00166667 0
0.0866667 -0.00166667 0
0.0833333 -0.00166667 0
0.08 -0.00166667 0
0.0766667 -0.00166667 0
0.0733333 -0.00166667 0
0.07 -0.00166667 0
0.0666667 -0.00166667 0
0.0633333 -0.00166667 0
0.06 -0.00166667 0
0.0566667 -0.00166667 0
0.0533333 -0.00166667 0
0.05 -0.00166667 0
0.0466667 -0.00166667 0
0.0433333 -0.00166667 0
0.04 -0.00166667 0
0.0366667 -0.00166667 0
0.0333333 -0.00166667 0
0.03 -0.00166667 0
0.0266667 -0.00166667 0
0.0233333 -0.00166667 0
0.02 -0.00166667 0
0.0166667 -0.00166667 0
0.0133333 -0.00166667 0
0.01 -0.00166667 0
0.00666667 -0.00166667 0
0.00333333 -0.00166667 0
0 -0.00166667 0
0.1 -0.005 0
0.0966667 -0.005 0
0.0933333 -0.005 0
0.09 -0.005 0
0.0866667 -0.005 0
0.0833333 -0.005 0
0.08 -0.005 0
0.0766667 -0.005 0
0.0733333 -0.005 0
0.07 -0.005 0
0.0666667 -0.005 0
0.0633333 -0.005 0
0.06 -0.005 0
0.0566667 -0.005 0
0.0533333 -0.005 0
0.05 -0.005 0
0.0466667 -0.005 0
0.0433333 -0.005 0
0.04 -0.005 0
0.0366667 -0.005 0
0.0333333 -0.005 0
0.03 -0.005 0
0.0266667 -0.005 0
0.0233333 -0.005 0
0.02 -0.005 0
0.0166667 -0.005 0
0.0133333 -0.005 0
0.01 -0.005 0
0.00666667 -0.005 0
0.00333333 -0.005 0
0 -0.005 0
0.1 -0.00833333 0
0.0966667 -0.00833333 0
0.0933333 -0.00833333 0
0.09 -0.00833333 0
0.0866667 -0.00833333 0
0.0833333 -0.00833333 0
0.08 -0.00833333 0
0.0766667 -0.00833333 0
0.0733333 -0.00833333 0
0.07 -0.00833333 0
0.0666667 -0.00833333 0
0.0633333 -0.00833333 0
0.06 -0.00833333 0
0.0566667 -0.00833333 0
0.0533333 -0.00833333 0
0.05 -0.00833333 0
0.0466667 -0.00833333 0
0.0433333 -0.00833333 0
0.04 -0.00833333 0
0.0366667 -0.00833333 0
0.0333333 -0.00833333 0
0.03 -0.00833333 0
0.0266667 -0.00833333 0
0.0233333 -0.00833333 0
0.02 -0.00833333 0
0.0166667 -0.00833333 0
0.0133333 -0.00833333 0
0.01 -0.00833333 0
0.00666667 -0.00833333 0
0.00333333 -0.00833333 0
0 -0.00833333 0
0.1 -0.0116667 0
0.0966667 -0.0116667 0
0.0933333 -0.0116667 0
0.09 -0.0116667 0
0.0866667 -0.0116667 0
0.0833333 -0.0116667 0
0.08 -0.0116667 0
0.0766667 -0.0116667 0
0.0733333 -0.0116667 0
0.07 -0.0116667 0
0.0666667 -0.0116667 0
0.0633333 -0.0116667 0
0.06 -0.0116667 0
0.0566667 -0.0116667 0
0.0533333 -0.0116667 0
0.05 -0.0116667 0
0.0466667 -0.0116667 0
0.0433333 -0.0116667 0
0.04 -0.0116667 0
0.0366667 -0.0116667 0
0.0333333 -0.0116667 0
0.03 -0.0116667 0
0.0266667 -0.0116667 0
0.0233333 -0.0116667 0
0.02 -0.0116667 0
0.0166667 -0.0116667 0
0.0133333 -0.0116667 0
0.01 -0.0116667 0
0.00666667 -0.0116667 0
0.00333333 -0.0116667 0
0 -0.0116667 0
0.1 -0.015 0
0.0966667 -0.015 0
0.0933333 -0.015 0
0.09 -0.015 0
0.0866667 -0.015 0
0.0833333 -0.015 0
0.08 -0.015 0
0.0766667 -0.015 0
0.0733333 -0.015 0
0.07 -0.015 0
0.0666667 -0.015 0
0.0633333 -0.015 0
0.06 -0.015 0
0.0566667 -0.015 0
0.0533333 -0.015 0
0.05 -0.015 0
0.0466667 -0.015 0
0.0433333 -0.015 0
0.04 -0.015 0
0.0366667 -0.015 0
0.0333333 -0.015 0
0.03 -0.015 0
0.0266667 -0.015 0
0.0233333 -0.015 0
0.02 -0.015 0
0.0166667 -0.015 0
0.0133333 -0.015 0
0.01 -0.015 0
0.00666667 -0.015 0
0.00333333 -0.015 0
0 -0.015 0
0.1 -0.0183333 0
0.0966667 -0.0183333 0
0.0933333 -0.0183333 0
0.09 -0.0183333 0
0.0866667 -0.0183333 0
0.0833333 -0.0183333 0
0.08 -0.0183333 0
0.0766667 -0.0183333 0
0.0733333 -0.0183333 0
0.07 -0.0183333 0
0.0666667 -0.0183333 0
0.0633333 -0.0183333 0
0.06 -0.0183333 0
0.0566667 -0.0183333 0
0.0533333 -0.0183333 0
0.05 -0.0183333 0
0.0466667 -0.0183333 0
0.0433333 -0.0183333 0
0.04 -0.0183333 0
0.0366667 -0.0183333 0
0.0333333 -0.0183333 0
0.03 -0.0183333 0
0.0266667 -0.0183333 0
0.0233333 -0.0183333 0
0.02 -0.0183333 0
0.0166667 -0.0183333 0
0.0133333 -0.0183333 0
0.01 -0.0183333 0
0.00666667 -0.0183333 0
0.00333333 -0.0183333 0
0 -0.0183333 0
0.1 -0.0216667 0
0.0966667 -0.0216667 0
0.0933333 -0.0216667 0
0.09 -0.0216667 0
0.0866667 -0.0216667 0
0.0833333 -0.0216667 0
0.08 -0.0216667 0
0.0766667 -0.0216667 0
0.0733333 -0.0216667 0
0.07 -0.0216667 0
0.0666667 -0.0216667 0
0.0633333 -0.0216667 0
0.06 -0.0216667 0
0.0566667 -0.0216667 0
0.0533333 -0.0216667 0
0.05 -0.0216667 0
0.0466667 -0.0216667 0
0.0433333 -0.0216667 0
0.04 -0.0216667 0
0.0366667 -0.0216667 0
0.0333333 -0.0216667 0
0.03 -0.0216667 0
0.0266667 -0.0216667 0
0.0233333 -0.0216667 0
0.02 -0.0216667 0
0.0166667 -0.0216667 0
0.0133333 -0.0216667 0
0.01 -0.0216667 0
0.00666667 -0.0216667 0
0.00333333 -0.0216667 0
0 -0.0216667 0
0.1 -0.025 0
0.0966667 -0.025 0
0.0933333 -0.025 0
0.09 -0.025 0
0.0866667 -0.025 0
0.0833333 -0.025 0
0.08 -0.025 0
0.0766667 -0.025 0
0.0733333 -0.025 0
0.07 -0.025 0
0.0666667 -0.025 0
0.0633333 -0.025 0
0.06 -0.025 0
0.0566667 -0.025 0
0.0533333 -0.025 0
0.05 -0.025 0
0.0466667 -0.025 0
0.0433333 -0.025 0
0.04 -0.025 0
0.0366667 -0.025 0
0.0333333 -0.025 0
0.03 -0.025 0
0.0266667 -0.025 0
0.0233333 -0.025 0
0.02 -0.025 0
0.0166667 -0.025 0
0.0133333 -0.025 0
0.01 -0.025 0
0.00666667 -0.025 0
0.00333333 -0.025 0
0 -0.025 0
0.1 -0.0283333 0
0.0966667 -0.0283333 0
0.0933333 -0.0283333 0
0.09 -0.0283333 0
0.0866667 -0.0283333 0
0.0833333 -0.0283333 0
0.08 -0.0283333 0
0.0766667 -0.0283333 0
0.0733333 -0.0283333 0
0.07 -0.0283333 0
0.0666667 -0.0283333 0
0.0633333 -0.0283333 0
0.06 -0.0283333 0
0.0566667 -0.0283333 0
0.0533333 -0.0283333 0
0.05 -0.0283333 0
0.0466667 -0.0283333 0
0.0433333 -0.0283333 0
0.04 -0.0283333 0
0.0366667 -0.0283333 0
0.0333333 -0.0283333 0
0.03 -0.0283333 0
0.0266667 -0.0283333 0
0.0233333 -0.0283333 0
0.02 -0.0283333 0
0.0166667 -0.0283333 0
0.0133333 -0.0283333 0
0.01 -0.0283333 0
0.00666667 -0.0283333 0
0.00333333 -0.0283333 0
0 -0.0283333 0
0.1 -0.0316667 0
0.0966667 -0.0316667 0
0.0933333 -0.0316667 0
0.09 -0.0316667 0
0.0866667 -0.0316667 0
0.0833333 -0.0316667 0
0.08 -0.0316667 0
0.0766667 -0.0316667 0
0.0733333 -0.0316667 0
0.07 -0.0316667 0
0.0666667 -0.0316667 0
0.0633333 -0.0316667 0
0.06 -0.0316667 0
0.0566667 -0.0316667 0
0.0533333 -0.0316667 0
0.05 -0.0316667 0
0.0466667 -0.0316667 0
0.0433333 -0.0316667 0
0.04 -0.0316667 0
0.0366667 -0.0316667 0
0.0333333 -0.0316667 0
0.03 -0.0316667 0
0.0266667 -0.0316667 0
0.0233333 -0.0316667 0
0.02 -0.0316667 0
0.0166667 -0.0316667 0
0.0133333 -0.0316667 0
0.01 -0.0316667 0
0.00666667 -0.0316667 0
0.00333333 -0.0316667 0
0 -0.0316667 0
0.1 -0.035 0
0.0966667 -0.035 0
0.0933333 -0.035 0
0.09 -0.035 0
0.0866667 -0.035 0
0.0833333 -0.035 0
0.08 -0.035 0
0.0766667 -0.035 0
0.0733333 -0.035 0
0.07 -0.035 0
0.0666667 -0.035 0
0.0633333 -0.035 0
0.06 -0.035 0
0.0566667 -0.035 0
0.0533333 -0.035 0
0.05 -0.035 0
0.0466667 -0.035 0
0.0433333 -0.035 0
0.04 -0.035 0
0.0366667 -0.035 0
0.0333333 -0.035 0
0.03 -0.035 0
0.0266667 -0.035 0
0.0233333 -0.035 0
0.02 -0.035 0
0.0166667 -0.035 0
0.0133333 -0.035 0
0.01 -0.035 0
0.00666667 -0.035 0
0.00333333 -0.035 0
0 -0.035 0
0.1 -0.0383333 0
0.0966667 -0.0383333 0
0.0933333 -0.0383333 0
0.09 -0.0383333 0
0.0866667 -0.0383333 0
0.0833333 -0.0383333 0
0.08 -0.0383333 0
0.0766667 -0.0383333 0
0.0733333 -0.0383333 0
0.07 -0.0383333 0
0.0666667 -0.0383333 0
0.0633333 -0.0383333 0
0.06 -0.0383333 0
0.0566667 -0.0383333 0
0.0533333 -0.0383333 0
0.05 -0.0383333 0
0.0466667 -0.0383333 0
0.0433333 -0.0383333 0
0.04 -0.0383333 0
0.0366667 -0.0383333 0
0.0333333 -0.0383333 0
0.03 -0.0383333 0
0.0266667 -0.0383333 0
0.0233333 -0.0383333 0
0.02 -0.0383333 0
0.0166667 -0.0383333 0
0.0133333 -0.0383333 0
0.01 -0.0383333 0
0.00666667 -0.0383333 0
0.00333333 -0.0383333 0
0 -0.0383333 0
0.1 -0.0416667 0
0.0966667 -0.0416667 0
0.0933333 -0.0416667 0
0.09 -0.0416667 0
0.0866667 -0.0416667 0
0.0833333 -0.0416667 0
0.08 -0.0416667 0
0.0766667 -0.0416667 0
0.0733333 -0.0416667 0
0.07 -0.0416667 0
0.0666667 -0.0416667 0
0.0633333 -0.0416667 0
0.06 -0.0416667 0
0.0566667 -0.0416667 0
0.0533333 -0.0416667 0
0.05 -0.0416667 0
0.0466667 -0.0416667 0
0.0433333 -0.0416667 0
0.04 -0.0416667 0
0.0366667 -0.0416667 0
0.0333333 -0.0416667 0
0.03 -0.0416667 0
0.0266667 -0.0416667 0
0.0233333 -0.0416667 0
0.02 -0.0416667 0
0.0166667 -0.0416667 0
0.0133333 -0.0416667 0
0.01 -0.0416667 0
0.00666667 -0.0416667 0
0.00333333 -0.0416667 0
0 -0.0416667 0
0.1 -0.045 0
0.0966667 -0.045 0
0.0933333 -0.045 0
0.09 -0.045 0
0.0866667 -0.045 0
0.0833333 -0.045 0
0.08 -0.045 0
0.0766667 -0.045 0
0.0733333 -0.045 0
0.07 -0.045 0
0.0666667 -0.045 0
0.0633333 -0.045 0
0.06 -0.045 0
0.0566667 -0.045 0
0.0533333 -0.045 0
0.05 -0.045 0
0.0466667 -0.045 0
0.0433333 -0.045 0
0.04 -0.045 0
0.0366667 -0.045 0
0.0333333 -0.045 0
0.03 -0.045 0
0.0266667 -0.045 0
0.0233333 -0.045 0
0.02 -0.045 0
0.0166667 -0.045 0
0.0133333 -0.045 0
0.01 -0.045 0
0.00666667 -0.045 0
0.00333333 -0.045 0
0 -0.045 0
0.1 -0.0483333 0
0.0966667 -0.0483333 0
0.0933333 -0.0483333 0
0.09 -0.0483333 0
0.0866667 -0.0483333 0
[...]
POINT_DATA 961
SCALARS Temp float 1
LOOKUP_TABLE default
990.225597
982.069403
974.394641
967.218240
960.556042
954.422794
948.832015
943.796080
939.326091
935.431940
932.122220
929.404235
927.283998
925.766191
924.854162
924.549929
924.854162
925.766191
927.284001
929.404239
932.122219
935.431945
939.326098
943.796084
948.832025
954.422795
960.556052
967.218244
974.394652
982.069427
990.225616
982.069416
973.596100
965.622933
958.167508
951.246279
944.874565
939.066412
933.834676
929.190890
925.145333
921.706928
918.883265
916.680592
915.103771
914.156282
913.840220
914.156283
915.103772
916.680595
918.883270
921.706927
925.145338
929.190899
933.834680
939.066423
944.874567
951.246289
958.167512
965.622944
973.596121
982.069428
974.394643
965.622925
957.368969
949.650989
942.486017
935.889912
929.877216
924.461236
919.653912
915.465883
911.906390
908.983287
906.703043
905.070692
904.089836
903.762643
904.089836
905.070693
906.703047
908.983292
911.906388
915.465888
919.653920
924.461240
929.877227
935.889914
942.486027
949.650991
957.368979
965.622944
974.394653
967.218236
958.167493
949.650982
941.687495
934.294609
927.488684
921.284727
915.696467
910.736224
906.414976
902.742256
899.726171
897.373393
895.689118
894.677061
894.339460
894.677061
895.689119
897.373397
899.726176
902.742254
906.414981
910.736232
915.696471
921.284738
927.488686
934.294618
941.687497
949.650991
958.167511
967.218244
960.556045
951.246271
942.486018
934.294617
926.690146
919.689437
913.307922
907.559727
902.457522
898.012600
894.234768
891.132362
888.712249
886.979769
885.938747
885.591485
885.938748
886.979770
888.712252
891.132367
894.234766
898.012605
902.457531
907.559731
913.307933
919.689438
926.690155
934.294618
942.486026
951.246288
960.556052
954.422791
944.874551
935.889908
927.488688
919.689431
912.509402
905.964427
900.068994
894.836098
890.277322
886.402721
883.220849
880.738745
878.961889
877.894202
877.538044
877.894203
878.961890
880.738749
883.220854
886.402720
890.277327
894.836107
900.068998
905.964438
912.509402
919.689440
927.488688
935.889916
944.874568
954.422797
948.832020
939.066406
929.877220
921.284738
913.307925
905.964436
899.270460
893.240812
887.888785
883.226224
879.263415
876.009105
873.470494
871.653186
870.561192
870.196926
870.561193
871.653187
873.470498
876.009110
879.263413
883.226229
887.888794
893.240816
899.270471
905.964436
913.307934
921.284738
929.877227
939.066423
948.832025
943.796080
933.834665
924.461235
915.696474
907.559725
900.068998
893.240807
887.090264
881.630928
876.874882
872.832619
869.513059
866.923549
865.069804
863.955915
863.584346
863.955916
865.069805
866.923553
869.513065
872.832617
876.874887
881.630937
887.090267
893.240817
900.068998
907.559733
915.696473
924.461242
933.834682
943.796086
939.326096
929.190884
919.653915
910.736235
902.457525
894.836107
887.888785
881.630934
876.076349
871.237324
867.124535
863.747060
861.112370
859.226283
858.092960
857.714908
858.092961
859.226284
861.112374
863.747065
867.124533
871.237329
876.076358
881.630937
887.888796
894.836107
902.457533
910.736235
919.653922
929.190900
939.326101
935.431941
925.145321
915.465882
906.414982
898.012597
890.277325
883.226218
876.874882
871.237318
866.326005
862.151775
858.723844
856.049795
854.135533
852.985279
852.601579
852.985280
854.135533
856.049799
858.723850
862.151773
866.326010
871.237327
876.874885
883.226229
890.277325
898.012605
906.414981
915.465888
925.145337
935.431946
932.122217
921.706912
911.906384
902.742259
894.234761
886.402721
879.263405
872.832614
867.124525
862.151771
857.925323
854.454508
851.747007
849.808797
848.644155
848.255654
848.644155
849.808798
851.747011
854.454514
857.925321
862.151776
867.124534
872.832617
879.263416
886.402720
894.234769
902.742257
911.906390
921.706929
932.122222
929.404236
918.883254
908.983286
899.726178
891.132361
883.220854
876.009100
869.513060
863.747055
858.723846
854.454514
850.948484
848.213512
846.255636
845.079176
844.686734
845.079177
846.255637
848.213516
850.948489
854.454512
858.723851
863.747064
869.513064
876.009111
883.220854
891.132369
899.726177
908.983293
918.883271
929.404241
927.283999
916.680581
906.703042
897.373400
888.712246
880.738750
873.470488
866.923549
861.112365
856.049796
851.747013
848.213511
845.457109
843.483892
842.298215
841.902698
842.298215
843.483893
845.457113
848.213517
851.747011
856.049802
861.112374
866.923552
873.470499
880.738749
888.712254
897.373399
906.703048
916.680597
927.284003
925.766189
915.103758
905.070689
895.689123
886.979765
878.961891
871.653178
865.069802
859.226275
854.135531
849.808800
846.255633
843.483890
841.499691
840.307415
839.909696
840.307415
841.499692
843.483894
846.255638
849.808798
854.135536
859.226284
865.069805
871.653190
878.961891
886.979773
895.689122
905.070695
915.103774
925.766194
924.854161
914.156269
904.089833
894.677066
885.938743
877.894204
870.561184
863.955914
858.092953
852.985278
848.644158
845.079173
842.298213
840.307415
839.111173
838.712132
839.111174
840.307416
842.298217
845.079179
848.644156
852.985284
858.092962
863.955917
870.561196
877.894204
885.938751
894.677065
904.089839
914.156286
924.854166
924.549928
913.840207
903.762640
894.339466
885.591480
877.538047
870.196919
863.584344
857.714901
852.601578
848.255658
844.686732
841.902696
839.909697
838.712133
838.312651
838.712133
839.909698
841.902700
844.686737
848.255656
852.601584
857.714910
863.584348
870.196930
877.538047
885.591489
894.339465
903.762647
913.840224
924.549933
924.854161
914.156269
904.089833
894.677066
885.938743
877.894204
870.561184
863.955914
858.092953
852.985278
848.644158
845.079174
842.298213
840.307415
839.111173
838.712133
839.111174
840.307416
842.298217
845.079179
848.644156
852.985284
858.092962
863.955918
870.561196
877.894205
885.938752
894.677066
904.089840
914.156286
924.854167
925.766189
915.103758
905.070689
895.689123
886.979765
878.961891
871.653178
865.069802
859.226275
854.135531
849.808800
846.255633
843.483890
841.499691
840.307415
839.909697
840.307416
841.499693
843.483895
846.255639
849.808799
854.135537
859.226285
865.069806
871.653190
878.961892
886.979774
895.689123
905.070696
915.103775
925.766195
927.283998
916.680580
906.703042
897.373400
888.712246
880.738749
873.470488
866.923549
861.112365
856.049796
851.747013
848.213511
845.457110
843.483893
842.298215
841.902699
842.298216
843.483894
845.457114
848.213518
851.747012
856.049803
861.112375
866.923554
873.470501
880.738750
888.712256
897.373401
906.703050
916.680598
927.284005
929.404236
918.883254
908.983286
899.726178
891.132360
883.220854
876.009100
869.513060
863.747055
858.723846
854.454515
850.948485
848.213512
846.255637
845.079177
844.686735
845.079178
846.255638
848.213517
850.948491
854.454514
858.723853
863.747066
869.513065
876.009113
883.220856
891.132371
899.726179
908.983295
918.883273
929.404243
932.122218
921.706914
911.906385
902.742260
894.234762
886.402723
879.263407
872.832616
867.124527
862.151774
857.925325
854.454511
851.747011
849.808800
848.644158
848.255658
848.644159
849.808802
851.747015
854.454518
857.925325
862.151780
867.124538
872.832622
879.263420
886.402725
894.234773
902.742262
911.906395
921.706933
932.122226
935.431938
925.145318
915.465879
906.414979
898.012595
890.277323
883.226215
876.874880
871.237316
866.326002
862.151773
858.723843
856.049794
854.135531
852.985278
852.601578
852.985279
854.135533
856.049799
858.723849
862.151773
866.326010
871.237327
876.874886
883.226229
890.277325
898.012606
906.414982
915.465889
925.145338
935.431947
939.326097
929.190886
919.653917
910.736237
902.457527
894.836110
887.888787
881.630937
876.076352
871.237328
867.124539
863.747064
861.112374
859.226287
858.092965
857.714913
858.092966
859.226289
861.112379
863.747070
867.124539
871.237335
876.076364
881.630943
887.888802
894.836113
902.457539
910.736241
919.653928
929.190906
939.326107
943.796077
933.834661
924.461231
915.696470
907.559721
900.068994
893.240803
887.090261
881.630925
876.874880
872.832616
869.513057
866.923547
865.069802
863.955914
863.584344
863.955915
865.069804
866.923552
869.513064
872.832617
876.874887
881.630937
887.090268
893.240818
900.068999
907.559734
915.696475
924.461243
933.834683
943.796087
948.832023
939.066409
929.877223
921.284742
913.307929
905.964441
899.270465
893.240818
887.888791
883.226230
879.263422
876.009112
873.470501
871.653194
870.561200
870.196934
870.561201
871.653196
873.470506
876.009119
879.263422
883.226238
887.888803
893.240825
899.270481
905.964447
913.307944
921.284748
929.877237
939.066433
948.832035
954.422789
944.874549
935.889906
927.488686
919.689430
912.509401
905.964427
900.068994
894.836099
890.277322
886.402722
883.220851
880.738747
878.961891
877.894204
877.538047
877.894205
878.961893
880.738752
883.220858
886.402723
890.277331
894.836111
900.069002
905.964443
912.509407
919.689445
927.488694
935.889921
944.874574
954.422803
960.556037
951.246263
942.486010
934.294609
926.690139
919.689430
913.307916
907.559721
902.457516
898.012594
894.234762
891.132357
888.712243
886.979764
885.938743
885.591480
885.938744
886.979766
888.712249
891.132364
894.234763
898.012603
902.457529
907.559729
913.307932
919.689438
926.690155
934.294619
942.486028
951.246290
960.556054
967.218234
958.167492
949.650981
941.687495
934.294609
927.488686
921.284729
915.696469
910.736227
906.414979
902.742260
899.726175
897.373398
895.689122
894.677066
894.339466
894.677067
895.689125
897.373403
899.726182
902.742261
906.414988
910.736240
915.696478
921.284746
927.488694
934.294627
941.687507
949.651001
958.167522
967.218254
974.394633
965.622916
957.368960
949.650981
942.486010
935.889906
929.877210
924.461230
919.653907
915.465878
911.906385
908.983283
906.703039
905.070688
904.089832
903.762640
904.089833
905.070690
906.703044
908.983290
911.906387
915.465887
919.653920
924.461240
929.877227
935.889915
942.486028
949.650994
957.368983
965.622950
974.394658
982.069414
973.596099
965.622934
958.167511
951.246283
944.874570
939.066418
933.834683
929.190897
925.145340
921.706936
918.883274
916.680601
915.103780
914.156292
913.840230
914.156293
915.103782
916.680606
918.883281
921.706938
925.145349
929.190910
933.834692
939.066435
944.874580
951.246302
958.167526
965.622960
973.596139
982.069449
990.225582
982.069392
974.394633
967.218235
960.556038
954.422790
948.832012
943.796077
939.326089
935.431939
932.122219
929.404234
927.283997
925.766190
924.854162
924.549929
924.854163
925.766192
927.284002
929.404240
932.122221
935.431947
939.326101
943.796087
948.832028
954.422800
960.556057
967.218250
974.394660
982.069438
990.225633
