# vtk DataFile Version 2.0
Unstructured Grid Example
ASCII
DATASET UNSTRUCTURED_GRID

POINTS 961 float
0.1 0.005 0
0.0966667 0.005 0
0.0933333 0.005 0
0.09 0.005 0
0.0866667 0.005 0
0.0833333 0.005 0
0.08 0.005 0
0.0766667 0.005 0
0.0733333 0.005 0
0.07 0.005 0
0.0666667 0.005 0
0.0633333 0.005 0
0.06 0.005 0
0.0566667 0.005 0
0.0533333 0.005 0
0.05 0.005 0
0.0466667 0.005 0
0.0433333 0.005 0
0.04 0.005 0
0.0366667 0.005 0
0.0333333 0.005 0
0.03 0.005 0
0.0266667 0.005 0
0.0233333 0.005 0
0.02 0.005 0
0.0166667 0.005 0
0.0133333 0.005 0
0.01 0.005 0
0.00666667 0.005 0
0.00333333 0.005 0
0 0.005 0
0.1 0.00166667 0
0.0966667 0.00166667 0
0.0933333 0.00166667 0
0.09 0.00166667 0
0.0866667 0.00166667 0
0.0833333 0.00166667 0
0.08 0.00166667 0
0.0766667 0.00166667 0
0.0733333 0.00166667 0
0.07 0.00166667 0
0.0666667 0.00166667 0
0.0633333 0.00166667 0
0.06 0.00166667 0
0.0566667 0.00166667 0
0.0533333 0.00166667 0
0.05 0.00166667 0
0.0466667 0.00166667 0
0.0433333 0.00166667 0
0.04 0.00166667 0
0.0366667 0.00166667 0
0.0333333 0.00166667 0
0.03 0.00166667 0
0.0266667 0.00166667 0
0.0233333 0.00166667 0
0.02 0.00166667 0
0.0166667 0.00166667 0
0.0133333 0.00166667 0
0.01 0.00166667 0
0.00666667 0.00166667 0
0.00333333 0.00166667 0
0 0.00166667 0
0.1 -0.00166667 0
0.0966667 -0.00166667 0
0.0933333 -0.00166667 0
0.09 -0.00166667 0
0.0866667 -0.00166667 0
0.0833333 -0.00166667 0
0.08 -0.00166667 0
0.0766667 -0.00166667 0
0.0733333 -0.00166667 0
0.07 -0.00166667 0
0.0666667 -0.00166667 0
0.0633333 -0.00166667 0
0.06 -0.00166667 0
0.0566667 -0.00166667 0
0.0533333 -0.00166667 0
0.05 -0.00166667 0
0.0466667 -0.00166667 0
0.0433333 -0.00166667 0
0.04 -0.00166667 0
0.0366667 -0.00166667 0
0.0333333 -0.00166667 0
0.03 -0.00166667 0
0.0266667 -0.00166667 0
0.0233333 -0.00166667 0
0.02 -0.00166667 0
0.0166667 -0.00166667 0
0.0133333 -0.00166667 0
0.01 -0.00166667 0
0.00666667 -0.00166667 0
0.00333333 -0.00166667 0
0 -0.00166667 0
0.1 -0.005 0
0.0966667 -0.005 0
0.0933333 -0.005 0
0.09 -0.005 0
0.0866667 -0.005 0
0.0833333 -0.005 0
0.08 -0.005 0
0.0766667 -0.005 0
0.0733333 -0.005 0
0.07 -0.005 0
0.0666667 -0.005 0
0.0633333 -0.005 0
0.06 -0.005 0
0.0566667 -0.005 0
0.0533333 -0.005 0
0.05 -0.005 0
0.0466667 -0.005 0
0.0433333 -0.005 0
0.04 -0.005 0
0.0366667 -0.005 0
0.0333333 -0.005 0
0.03 -0.005 0
0.0266667 -0.005 0
0.0233333 -0.005 0
0.02 -0.005 0
0.0166667 -0.005 0
0.0133333 -0.005 0
0.01 -0.005 0
0.00666667 -0.005 0
0.00333333 -0.005 0
0 -0.005 0
0.1 -0.00833333 0
0.0966667 -0.00833333 0
0.0933333 -0.00833333 0
0.09 -0.00833333 0
0.0866667 -0.00833333 0
0.0833333 -0.00833333 0
0.08 -0.00833333 0
0.0766667 -0.00833333 0
0.0733333 -0.00833333 0
0.07 -0.00833333 0
0.0666667 -0.00833333 0
0.0633333 -0.00833333 0
0.06 -0.00833333 0
0.0566667 -0.00833333 0
0.0533333 -0.00833333 0
0.05 -0.00833333 0
0.0466667 -0.00833333 0
0.0433333 -0.00833333 0
0.04 -0.00833333 0
0.0366667 -0.00833333 0
0.0333333 -0.00833333 0
0.03 -0.00833333 0
0.0266667 -0.00833333 0
0.0233333 -0.00833333 0
0.02 -0.00833333 0
0.0166667 -0.00833333 0
0.0133333 -0.00833333 0
0.01 -0.00833333 0
0.00666667 -0.00833333 0
0.00333333 -0.00833333 0
0 -0.00833333 0
0.1 -0.0116667 0
0.0966667 -0.0116667 0
0.0933333 -0.0116667 0
0.09 -0.0116667 0
0.0866667 -0.0116667 0
0.0833333 -0.0116667 0
0.08 -0.0116667 0
0.0766667 -0.0116667 0
0.0733333 -0.0116667 0
0.07 -0.0116667 0
0.0666667 -0.0116667 0
0.0633333 -0.0116667 0
0.06 -0.0116667 0
0.0566667 -0.0116667 0
0.0533333 -0.0116667 0
0.05 -0.0116667 0
0.0466667 -0.0116667 0
0.0433333 -0.0116667 0
0.04 -0.0116667 0
0.0366667 -0.0116667 0
0.0333333 -0.0116667 0
0.03 -0.0116667 0
0.0266667 -0.0116667 0
0.0233333 -0.0116667 0
0.02 -0.0116667 0
0.0166667 -0.0116667 0
0.0133333 -0.0116667 0
0.01 -0.0116667 0
0.00666667 -0.0116667 0
0.00333333 -0.0116667 0
0 -0.0116667 0
0.1 -0.015 0
0.0966667 -0.015 0
0.0933333 -0.015 0
0.09 -0.015 0
0.0866667 -0.015 0
0.0833333 -0.015 0
0.08 -0.015 0
0.0766667 -0.015 0
0.0733333 -0.015 0
0.07 -0.015 0
0.0666667 -0.015 0
0.0633333 -0.015 0
0.06 -0.015 0
0.0566667 -0.015 0
0.0533333 -0.015 0
0.05 -0.015 0
0.0466667 -0.015 0
0.0433333 -0.015 0
0.04 -0.015 0
0.0366667 -0.015 0
0.0333333 -0.015 0
0.03 -0.015 0
0.0266667 -0.015 0
0.0233333 -0.015 0
0.02 -0.015 0
0.0166667 -0.015 0
0.0133333 -0.015 0
0.01 -0.015 0
0.00666667 -0.015 0
0.00333333 -0.015 0
0 -0.015 0
0.1 -0.0183333 0
0.0966667 -0.0183333 0
0.0933333 -0.0183333 0
0.09 -0.0183333 0
0.0866667 -0.0183333 0
0.0833333 -0.0183333 0
0.08 -0.0183333 0
0.0766667 -0.0183333 0
0.0733333 -0.0183333 0
0.07 -0.0183333 0
0.0666667 -0.0183333 0
0.0633333 -0.0183333 0
0.06 -0.0183333 0
0.0566667 -0.0183333 0
0.0533333 -0.0183333 0
0.05 -0.0183333 0
0.0466667 -0.0183333 0
0.0433333 -0.0183333 0
0.04 -0.0183333 0
0.0366667 -0.0183333 0
0.0333333 -0.0183333 0
0.03 -0.0183333 0
0.0266667 -0.0183333 0
0.0233333 -0.0183333 0
0.02 -0.0183333 0
0.0166667 -0.0183333 0
0.0133333 -0.0183333 0
0.01 -0.0183333 0
0.00666667 -0.0183333 0
0.00333333 -0.0183333 0
0 -0.0183333 0
0.1 -0.0216667 0
0.0966667 -0.0216667 0
0.0933333 -0.0216667 0
0.09 -0.0216667 0
0.0866667 -0.0216667 0
0.0833333 -0.0216667 0
0.08 -0.0216667 0
0.0766667 -0.0216667 0
0.0733333 -0.0216667 0
0.07 -0.0216667 0
0.0666667 -0.0216667 0
0.0633333 -0.0216667 0
0.06 -0.0216667 0
0.0566667 -0.0216667 0
0.0533333 -0.0216667 0
0.05 -0.0216667 0
0.0466667 -0.0216667 0
0.0433333 -0.0216667 0
0.04 -0.0216667 0
0.0366667 -0.0216667 0
0.0333333 -0.0216667 0
0.03 -0.0216667 0
0.0266667 -0.0216667 0
0.0233333 -0.0216667 0
0.02 -0.0216667 0
0.0166667 -0.0216667 0
0.0133333 -0.0216667 0
0.01 -0.0216667 0
0.00666667 -0.0216667 0
0.00333333 -0.0216667 0
0 -0.0216667 0
0.1 -0.025 0
0.0966667 -0.025 0
0.0933333 -0.025 0
0.09 -0.025 0
0.0866667 -0.025 0
0.0833333 -0.025 0
0.08 -0.025 0
0.0766667 -0.025 0
0.0733333 -0.025 0
0.07 -0.025 0
0.0666667 -0.025 0
0.0633333 -0.025 0
0.06 -0.025 0
0.0566667 -0.025 0
0.0533333 -0.025 0
0.05 -0.025 0
0.0466667 -0.025 0
0.0433333 -0.025 0
0.04 -0.025 0
0.0366667 -0.025 0
0.0333333 -0.025 0
0.03 -0.025 0
0.0266667 -0.025 0
0.0233333 -0.025 0
0.02 -0.025 0
0.0166667 -0.025 0
0.0133333 -0.025 0
0.01 -0.025 0
0.00666667 -0.025 0
0.00333333 -0.025 0
0 -0.025 0
0.1 -0.0283333 0
0.0966667 -0.0283333 0
0.0933333 -0.0283333 0
0.09 -0.0283333 0
0.0866667 -0.0283333 0
0.0833333 -0.0283333 0
0.08 -0.0283333 0
0.0766667 -0.0283333 0
0.0733333 -0.0283333 0
0.07 -0.0283333 0
0.0666667 -0.0283333 0
0.0633333 -0.0283333 0
0.06 -0.0283333 0
0.0566667 -0.0283333 0
0.0533333 -0.0283333 0
0.05 -0.0283333 0
0.0466667 -0.0283333 0
0.0433333 -0.0283333 0
0.04 -0.0283333 0
0.0366667 -0.0283333 0
0.0333333 -0.0283333 0
0.03 -0.0283333 0
0.0266667 -0.0283333 0
0.0233333 -0.0283333 0
0.02 -0.0283333 0
0.0166667 -0.0283333 0
0.0133333 -0.0283333 0
0.01 -0.0283333 0
0.00666667 -0.0283333 0
0.00333333 -0.0283333 0
0 -0.0283333 0
0.1 -0.0316667 0
0.0966667 -0.0316667 0
0.0933333 -0.0316667 0
0.09 -0.0316667 0
0.0866667 -0.0316667 0
0.0833333 -0.0316667 0
0.08 -0.0316667 0
0.0766667 -0.0316667 0
0.0733333 -0.0316667 0
0.07 -0.0316667 0
0.0666667 -0.0316667 0
0.0633333 -0.0316667 0
0.06 -0.0316667 0
0.0566667 -0.0316667 0
0.0533333 -0.0316667 0
0.05 -0.0316667 0
0.0466667 -0.0316667 0
0.0433333 -0.0316667 0
0.04 -0.0316667 0
0.0366667 -0.0316667 0
0.0333333 -0.0316667 0
0.03 -0.0316667 0
0.0266667 -0.0316667 0
0.0233333 -0.0316667 0
0.02 -0.0316667 0
0.0166667 -0.0316667 0
0.0133333 -0.0316667 0
0.01 -0.0316667 0
0.00666667 -0.0316667 0
0.00333333 -0.0316667 0
0 -0.0316667 0
0.1 -0.035 0
0.0966667 -0.035 0
0.0933333 -0.035 0
0.09 -0.035 0
0.0866667 -0.035 0
0.0833333 -0.035 0
0.08 -0.035 0
0.0766667 -0.035 0
0.0733333 -0.035 0
0.07 -0.035 0
0.0666667 -0.035 0
0.0633333 -0.035 0
0.06 -0.035 0
0.0566667 -0.035 0
0.0533333 -0.035 0
0.05 -0.035 0
0.0466667 -0.035 0
0.0433333 -0.035 0
0.04 -0.035 0
0.0366667 -0.035 0
0.0333333 -0.035 0
0.03 -0.035 0
0.0266667 -0.035 0
0.0233333 -0.035 0
0.02 -0.035 0
0.0166667 -0.035 0
0.0133333 -0.035 0
0.01 -0.035 0
0.00666667 -0.035 0
0.00333333 -0.035 0
0 -0.035 0
0.1 -0.0383333 0
0.0966667 -0.0383333 0
0.0933333 -0.0383333 0
0.09 -0.0383333 0
0.0866667 -0.0383333 0
0.0833333 -0.0383333 0
0.08 -0.0383333 0
0.0766667 -0.0383333 0
0.0733333 -0.0383333 0
0.07 -0.0383333 0
0.0666667 -0.0383333 0
0.0633333 -0.0383333 0
0.06 -0.0383333 0
0.0566667 -0.0383333 0
0.0533333 -0.0383333 0
0.05 -0.0383333 0
0.0466667 -0.0383333 0
0.0433333 -0.0383333 0
0.04 -0.0383333 0
0.0366667 -0.0383333 0
0.0333333 -0.0383333 0
0.03 -0.0383333 0
0.0266667 -0.0383333 0
0.0233333 -0.0383333 0
0.02 -0.0383333 0
0.0166667 -0.0383333 0
0.0133333 -0.0383333 0
0.01 -0.0383333 0
0.00666667 -0.0383333 0
0.00333333 -0.0383333 0
0 -0.0383333 0
0.1 -0.0416667 0
0.0966667 -0.0416667 0
0.0933333 -0.0416667 0
0.09 -0.0416667 0
0.0866667 -0.0416667 0
0.0833333 -0.0416667 0
0.08 -0.0416667 0
0.0766667 -0.0416667 0
0.0733333 -0.0416667 0
0.07 -0.0416667 0
0.0666667 -0.0416667 0
0.0633333 -0.0416667 0
0.06 -0.0416667 0
0.0566667 -0.0416667 0
0.0533333 -0.0416667 0
0.05 -0.0416667 0
0.0466667 -0.0416667 0
0.0433333 -0.0416667 0
0.04 -0.0416667 0
0.0366667 -0.0416667 0
0.0333333 -0.0416667 0
0.03 -0.0416667 0
0.0266667 -0.0416667 0
0.0233333 -0.0416667 0
0.02 -0.0416667 0
0.0166667 -0.0416667 0
0.0133333 -0.0416667 0
0.01 -0.0416667 0
0.00666667 -0.0416667 0
0.00333333 -0.0416667 0
0 -0.0416667 0
0.1 -0.045 0
0.0966667 -0.045 0
0.0933333 -0.045 0
0.09 -0.045 0
0.0866667 -0.045 0
0.0833333 -0.045 0
0.08 -0.045 0
0.0766667 -0.045 0
0.0733333 -0.045 0
0.07 -0.045 0
0.0666667 -0.045 0
0.0633333 -0.045 0
0.06 -0.045 0
0.0566667 -0.045 0
0.0533333 -0.045 0
0.05 -0.045 0
0.0466667 -0.045 0
0.0433333 -0.045 0
0.04 -0.045 0
0.0366667 -0.045 0
0.0333333 -0.045 0
0.03 -0.045 0
0.0266667 -0.045 0
0.0233333 -0.045 0
0.02 -0.045 0
0.0166667 -0.045 0
0.0133333 -0.045 0
0.01 -0.045 0
0.00666667 -0.045 0
0.00333333 -0.045 0
0 -0.045 0
0.1 -0.0483333 0
0.0966667 -0.0483333 0
0.0933333 -0.0483333 0
0.09 -0.0483333 0
0.0866667 -0.0483333 0
[...]
POINT_DATA 961
SCALARS Temp float 1
LOOKUP_TABLE default
766.346161
749.490476
733.640266
718.830151
705.091992
692.454925
680.945156
670.586207
661.398754
653.400873
646.607962
641.032887
636.686080
633.575551
631.706974
631.083739
631.706974
633.575553
636.686086
641.032895
646.607959
653.400881
661.398768
670.586213
680.945176
692.454927
705.092009
718.830156
733.640287
749.490524
766.346198
749.490502
731.979647
715.513347
700.127578
685.855430
672.727174
660.770032
650.008441
640.463880
632.155130
625.098185
619.306412
614.790649
611.559217
609.618010
608.970551
609.618010
611.559218
614.790655
619.306421
625.098181
632.155138
640.463895
650.008447
660.770052
672.727176
685.855448
700.127583
715.513369
731.979689
749.490526
733.640270
715.513331
698.467696
682.540608
667.766324
654.176176
641.798345
630.658129
620.777761
612.176684
604.871454
598.875909
594.201267
590.856144
588.846639
588.176400
588.846639
590.856145
594.201274
598.875918
604.871450
612.176693
620.777777
630.658135
641.798366
654.176177
667.766342
682.540612
698.467715
715.513369
733.640288
718.830141
700.127546
682.540594
666.107709
650.864238
636.842507
624.071593
612.577596
602.383457
593.509235
585.972012
579.786065
574.962970
571.511615
569.438294
568.746770
569.438294
571.511616
574.962977
579.786074
585.972008
593.509243
602.383473
612.577602
624.071614
636.842508
650.864255
666.107711
682.540611
700.127582
718.830156
705.091997
685.855414
667.766326
650.864255
635.185557
620.763482
607.627936
595.805765
585.320565
576.192967
568.440543
562.077976
557.117172
553.567274
551.434756
550.723488
551.434756
553.567276
557.117179
562.077985
568.440538
576.192976
585.320581
595.805771
607.627957
620.763481
635.185573
650.864255
667.766341
685.855448
705.092010
692.454920
672.727146
654.176167
636.842513
620.763470
605.973136
592.502182
580.378138
569.625204
560.264537
552.314159
545.789126
540.701650
537.061107
534.874136
534.144706
534.874136
537.061109
540.701657
545.789135
552.314154
560.264546
569.625220
580.378144
592.502202
605.973135
620.763485
636.842512
654.176180
672.727179
692.454931
680.945167
660.770020
641.798353
624.071617
607.627942
592.502200
578.725759
566.326771
555.329986
545.757041
537.626366
530.953361
525.750513
522.027410
519.790843
519.044871
519.790843
522.027411
525.750520
530.953370
537.626361
545.757050
555.330002
566.326776
578.725779
592.502199
607.627957
624.071615
641.798365
660.770052
680.945177
670.586208
650.008418
630.658126
612.577610
595.805760
580.378146
566.326760
553.680317
542.464062
532.700063
524.407118
517.600935
512.294249
508.496841
506.215637
505.454777
506.215637
508.496842
512.294256
517.600944
524.407113
532.700072
542.464078
553.680322
566.326780
580.378144
595.805775
612.577606
630.658138
650.008450
670.586217
661.398764
640.463867
620.777769
602.383482
585.320571
569.625223
555.329986
542.464074
531.053168
521.119721
512.682857
505.758556
500.359775
496.496466
494.175672
493.401608
494.175673
496.496467
500.359782
505.758565
512.682851
521.119730
531.053184
542.464078
555.330006
569.625220
585.320585
602.383477
620.777780
640.463898
661.398772
653.400874
632.155106
612.176681
593.509248
576.192961
560.264545
545.757029
532.700063
521.119709
511.038753
502.476603
495.449478
489.970527
486.049848
483.694590
482.909032
483.694591
486.049849
489.970534
495.449487
502.476598
511.038762
521.119725
532.700067
545.757049
560.264542
576.192976
593.509243
612.176691
632.155137
653.400882
646.607956
625.098154
604.871443
585.972018
568.440529
552.314158
537.626345
524.407109
512.682836
502.476595
493.808035
486.693576
481.146533
477.177127
474.792599
473.997277
474.792599
477.177128
481.146540
486.693586
493.808029
502.476603
512.682852
524.407113
537.626365
552.314154
568.440543
585.972013
604.871454
625.098185
646.607963
641.032890
619.306391
598.875908
579.786082
562.077973
545.789137
530.953351
517.600937
505.758546
495.449481
486.693589
479.507454
473.904526
469.895129
467.486578
466.683243
467.486578
469.895131
473.904533
479.507464
486.693583
495.449490
505.758563
517.600941
530.953371
545.789133
562.077987
579.786076
598.875919
619.306422
641.032898
636.686082
614.790626
594.201265
574.962986
557.117168
540.701660
525.750502
512.294250
500.359765
489.970529
481.146544
473.904524
468.258023
464.217447
461.790164
460.980582
461.790165
464.217448
468.258030
473.904534
481.146538
489.970538
500.359781
512.294254
525.750522
540.701656
557.117182
574.962980
594.201276
614.790657
636.686089
633.575550
611.559190
590.856138
571.511627
553.567266
537.061112
522.027395
508.496838
496.496450
486.049845
477.177134
469.895124
464.217442
460.154553
457.713867
456.899815
457.713868
460.154554
464.217449
469.895134
477.177128
486.049854
496.496467
508.496843
522.027415
537.061109
553.567280
571.511621
590.856149
611.559222
633.575557
631.706972
609.617983
588.846633
569.438306
551.434748
534.874141
519.790828
506.215634
494.175657
483.694588
474.792606
467.486572
461.790160
457.713868
455.265129
454.448392
455.265130
457.713869
461.790167
467.486583
474.792600
483.694598
494.175674
506.215639
519.790849
534.874138
551.434762
569.438301
588.846644
609.618015
631.706980
631.083738
608.970525
588.176395
568.746783
550.723480
534.144712
519.044857
505.454775
493.401594
482.909030
473.997285
466.683239
460.980579
456.899816
454.448392
453.630759
454.448393
456.899818
460.980587
466.683249
473.997280
482.909040
493.401611
505.454780
519.044878
534.144709
550.723496
568.746778
588.176407
608.970557
631.083747
631.706972
609.617983
588.846633
569.438306
551.434748
534.874141
519.790828
506.215634
494.175657
483.694589
474.792606
467.486573
461.790160
457.713868
455.265130
454.448392
455.265131
457.713870
461.790168
467.486583
474.792601
483.694599
494.175675
506.215640
519.790850
534.874139
551.434763
569.438302
588.846645
609.618016
631.706981
633.575549
611.559190
590.856138
571.511626
553.567266
537.061112
522.027395
508.496838
496.496451
486.049845
477.177134
469.895124
464.217442
460.154554
457.713868
456.899816
457.713869
460.154556
464.217451
469.895135
477.177129
486.049856
496.496469
508.496844
522.027417
537.061111
553.567282
571.511623
590.856151
611.559224
633.575559
636.686081
614.790626
594.201265
574.962985
557.117168
540.701659
525.750502
512.294250
500.359765
489.970529
481.146544
473.904525
468.258024
464.217448
461.790165
460.980584
461.790166
464.217450
468.258032
473.904536
481.146540
489.970540
500.359784
512.294257
525.750525
540.701659
557.117185
574.962983
594.201279
614.790660
636.686092
641.032890
619.306390
598.875908
579.786082
562.077972
545.789136
530.953351
517.600937
505.758547
495.449482
486.693589
479.507455
473.904527
469.895131
467.486580
466.683245
467.486581
469.895133
473.904535
479.507467
486.693586
495.449493
505.758566
517.600945
530.953375
545.789137
562.077991
579.786081
598.875923
619.306426
641.032902
646.607958
625.098157
604.871446
585.972021
568.440532
552.314161
537.626349
524.407113
512.682841
502.476600
493.808040
486.693582
481.146539
477.177134
474.792606
473.997284
474.792607
477.177136
481.146548
486.693594
493.808037
502.476612
512.682861
524.407122
537.626374
552.314163
568.440552
585.972022
604.871463
625.098194
646.607972
653.400868
632.155101
612.176675
593.509243
576.192956
560.264539
545.757024
532.700058
521.119704
511.038749
502.476599
495.449474
489.970523
486.049844
483.694588
482.909029
483.694589
486.049847
489.970532
495.449486
502.476597
511.038762
521.119725
532.700068
545.757050
560.264543
576.192977
593.509245
612.176693
632.155139
653.400884
661.398767
640.463870
620.777772
602.383485
585.320575
569.625228
555.329991
542.464079
531.053174
521.119728
512.682864
505.758564
500.359784
496.496475
494.175681
493.401618
494.175683
496.496477
500.359793
505.758576
512.682863
521.119742
531.053196
542.464090
555.330018
569.625233
585.320598
602.383490
620.777793
640.463911
661.398785
670.586201
650.008410
630.658118
612.577602
595.805752
580.378138
566.326753
553.680311
542.464056
532.700057
524.407113
517.600930
512.294244
508.496837
506.215633
505.454774
506.215634
508.496840
512.294254
517.600942
524.407112
532.700072
542.464078
553.680323
566.326781
580.378145
595.805777
612.577609
630.658141
650.008453
670.586220
680.945173
660.770027
641.798360
624.071625
607.627951
592.502210
578.725769
566.326782
555.329998
545.757054
537.626380
530.953375
525.750528
522.027426
519.790859
519.044888
519.790860
522.027429
525.750537
530.953389
537.626380
545.757069
555.330021
566.326796
578.725799
592.502219
607.627978
624.071635
641.798386
660.770072
680.945196
692.454916
672.727142
654.176163
636.842510
620.763467
605.973134
592.502181
580.378138
569.625205
560.264539
552.314160
545.789129
540.701653
537.061111
534.874140
534.144710
534.874141
537.061114
540.701663
545.789142
552.314161
560.264554
569.625228
580.378153
592.502212
605.973145
620.763496
636.842523
654.176192
672.727191
692.454943
705.091981
685.855398
667.766309
650.864239
635.185541
620.763467
607.627922
595.805751
585.320552
576.192955
568.440531
562.077965
557.117161
553.567264
551.434746
550.723479
551.434748
553.567268
557.117172
562.077978
568.440532
576.192971
585.320577
595.805767
607.627954
620.763480
635.185573
650.864256
667.766343
685.855451
705.092013
718.830138
700.127544
682.540592
666.107709
650.864239
636.842509
624.071597
612.577601
602.383463
593.509241
585.972019
579.786074
574.962979
571.511625
569.438304
568.746781
569.438306
571.511628
574.962989
579.786087
585.972021
593.509258
602.383488
612.577618
624.071630
636.842525
650.864273
666.107731
682.540631
700.127603
718.830177
733.640250
715.513312
698.467678
682.540592
667.766309
654.176162
641.798333
630.658117
620.777750
612.176673
604.871444
598.875900
594.201259
590.856136
588.846631
588.176393
588.846633
590.856139
594.201269
598.875913
604.871447
612.176690
620.777775
630.658134
641.798366
654.176179
667.766345
682.540618
698.467724
715.513380
733.640300
749.490498
731.979645
715.513349
700.127583
685.855438
672.727184
660.770044
650.008454
640.463894
632.155145
625.098202
619.306430
614.790667
611.559236
609.618029
608.970571
609.618031
611.559240
614.790677
619.306443
625.098204
632.155161
640.463919
650.008471
660.770077
672.727202
685.855476
700.127612
715.513401
731.979725
749.490568
766.346130
749.490452
733.640251
718.830139
705.091982
692.454918
680.945150
670.586202
661.398749
653.400870
646.607959
641.032885
636.686078
633.575550
631.706973
631.083740
631.706975
633.575554
636.686088
641.032898
646.607962
653.400885
661.398773
670.586219
680.945183
692.454936
705.092020
718.830168
733.640303
749.490546
766.346233
