# vtk DataFile Version 2.0
Unstructured Grid Example
ASCII
DATASET UNSTRUCTURED_GRID

POINTS 961 float
0.1 0.005 0
0.0966667 0.005 0
0.0933333 0.005 0
0.09 0.005 0
0.0866667 0.005 0
0.0833333 0.005 0
0.08 0.005 0
0.0766667 0.005 0
0.0733333 0.005 0
0.07 0.005 0
0.0666667 0.005 0
0.0633333 0.005 0
0.06 0.005 0
0.0566667 0.005 0
0.0533333 0.005 0
0.05 0.005 0
0.0466667 0.005 0
0.0433333 0.005 0
0.04 0.005 0
0.0366667 0.005 0
0.0333333 0.005 0
0.03 0.005 0
0.0266667 0.005 0
0.0233333 0.005 0
0.02 0.005 0
0.0166667 0.005 0
0.0133333 0.005 0
0.01 0.005 0
0.00666667 0.005 0
0.00333333 0.005 0
0 0.005 0
0.1 0.00166667 0
0.0966667 0.00166667 0
0.0933333 0.00166667 0
0.09 0.00166667 0
0.0866667 0.00166667 0
0.0833333 0.00166667 0
0.08 0.00166667 0
0.0766667 0.00166667 0
0.0733333 0.00166667 0
0.07 0.00166667 0
0.0666667 0.00166667 0
0.0633333 0.00166667 0
0.06 0.00166667 0
0.0566667 0.00166667 0
0.0533333 0.00166667 0
0.05 0.00166667 0
0.0466667 0.00166667 0
0.0433333 0.00166667 0
0.04 0.00166667 0
0.0366667 0.00166667 0
0.0333333 0.00166667 0
0.03 0.00166667 0
0.0266667 0.00166667 0
0.0233333 0.00166667 0
0.02 0.00166667 0
0.0166667 0.00166667 0
0.0133333 0.00166667 0
0.01 0.00166667 0
0.00666667 0.00166667 0
0.00333333 0.00166667 0
0 0.00166667 0
0.1 -0.00166667 0
0.0966667 -0.00166667 0
0.0933333 -0.00166667 0
0.09 -0.00166667 0
0.0866667 -0.00166667 0
0.0833333 -0.00166667 0
0.08 -0.00166667 0
0.0766667 -0.00166667 0
0.0733333 -0.00166667 0
0.07 -0.00166667 0
0.0666667 -0.00166667 0
0.0633333 -0.00166667 0
0.06 -0.00166667 0
0.0566667 -0.00166667 0
0.0533333 -0.00166667 0
0.05 -0.00166667 0
0.0466667 -0.00166667 0
0.0433333 -0.00166667 0
0.04 -0.00166667 0
0.0366667 -0.00166667 0
0.0333333 -0.00166667 0
0.03 -0.00166667 0
0.0266667 -0.00166667 0
0.0233333 -0.00166667 0
0.02 -0.00166667 0
0.0166667 -0.00166667 0
0.0133333 -0.00166667 0
0.01 -0.00166667 0
0.00666667 -0.00166667 0
0.00333333 -0.00166667 0
0 -0.00166667 0
0.1 -0.005 0
0.0966667 -0.005 0
0.0933333 -0.005 0
0.09 -0.005 0
0.0866667 -0.005 0
0.0833333 -0.005 0
0.08 -0.005 0
0.0766667 -0.005 0
0.0733333 -0.005 0
0.07 -0.005 0
0.0666667 -0.005 0
0.0633333 -0.005 0
0.06 -0.005 0
0.0566667 -0.005 0
0.0533333 -0.005 0
0.05 -0.005 0
0.0466667 -0.005 0
0.0433333 -0.005 0
0.04 -0.005 0
0.0366667 -0.005 0
0.0333333 -0.005 0
0.03 -0.005 0
0.0266667 -0.005 0
0.0233333 -0.005 0
0.02 -0.005 0
0.0166667 -0.005 0
0.0133333 -0.005 0
0.01 -0.005 0
0.00666667 -0.005 0
0.00333333 -0.005 0
0 -0.005 0
0.1 -0.00833333 0
0.0966667 -0.00833333 0
0.0933333 -0.00833333 0
0.09 -0.00833333 0
0.0866667 -0.00833333 0
0.0833333 -0.00833333 0
0.08 -0.00833333 0
0.0766667 -0.00833333 0
0.0733333 -0.00833333 0
0.07 -0.00833333 0
0.0666667 -0.00833333 0
0.0633333 -0.00833333 0
0.06 -0.00833333 0
0.0566667 -0.00833333 0
0.0533333 -0.00833333 0
0.05 -0.00833333 0
0.0466667 -0.00833333 0
0.0433333 -0.00833333 0
0.04 -0.00833333 0
0.0366667 -0.00833333 0
0.0333333 -0.00833333 0
0.03 -0.00833333 0
0.0266667 -0.00833333 0
0.0233333 -0.00833333 0
0.02 -0.00833333 0
0.0166667 -0.00833333 0
0.0133333 -0.00833333 0
0.01 -0.00833333 0
0.00666667 -0.00833333 0
0.00333333 -0.00833333 0
0 -0.00833333 0
0.1 -0.0116667 0
0.0966667 -0.0116667 0
0.0933333 -0.0116667 0
0.09 -0.0116667 0
0.0866667 -0.0116667 0
0.0833333 -0.0116667 0
0.08 -0.0116667 0
0.0766667 -0.0116667 0
0.0733333 -0.0116667 0
0.07 -0.0116667 0
0.0666667 -0.0116667 0
0.0633333 -0.0116667 0
0.06 -0.0116667 0
0.0566667 -0.0116667 0
0.0533333 -0.0116667 0
0.05 -0.0116667 0
0.0466667 -0.0116667 0
0.0433333 -0.0116667 0
0.04 -0.0116667 0
0.0366667 -0.0116667 0
0.0333333 -0.0116667 0
0.03 -0.0116667 0
0.0266667 -0.0116667 0
0.0233333 -0.0116667 0
0.02 -0.0116667 0
0.0166667 -0.0116667 0
0.0133333 -0.0116667 0
0.01 -0.0116667 0
0.00666667 -0.0116667 0
0.00333333 -0.0116667 0
0 -0.0116667 0
0.1 -0.015 0
0.0966667 -0.015 0
0.0933333 -0.015 0
0.09 -0.015 0
0.0866667 -0.015 0
0.0833333 -0.015 0
0.08 -0.015 0
0.0766667 -0.015 0
0.0733333 -0.015 0
0.07 -0.015 0
0.0666667 -0.015 0
0.0633333 -0.015 0
0.06 -0.015 0
0.0566667 -0.015 0
0.0533333 -0.015 0
0.05 -0.015 0
0.0466667 -0.015 0
0.0433333 -0.015 0
0.04 -0.015 0
0.0366667 -0.015 0
0.0333333 -0.015 0
0.03 -0.015 0
0.0266667 -0.015 0
0.0233333 -0.015 0
0.02 -0.015 0
0.0166667 -0.015 0
0.0133333 -0.015 0
0.01 -0.015 0
0.00666667 -0.015 0
0.00333333 -0.015 0
0 -0.015 0
0.1 -0.0183333 0
0.0966667 -0.0183333 0
0.0933333 -0.0183333 0
0.09 -0.0183333 0
0.0866667 -0.0183333 0
0.0833333 -0.0183333 0
0.08 -0.0183333 0
0.0766667 -0.0183333 0
0.0733333 -0.0183333 0
0.07 -0.0183333 0
0.0666667 -0.0183333 0
0.0633333 -0.0183333 0
0.06 -0.0183333 0
0.0566667 -0.0183333 0
0.0533333 -0.0183333 0
0.05 -0.0183333 0
0.0466667 -0.0183333 0
0.0433333 -0.0183333 0
0.04 -0.0183333 0
0.0366667 -0.0183333 0
0.0333333 -0.0183333 0
0.03 -0.0183333 0
0.0266667 -0.0183333 0
0.0233333 -0.0183333 0
0.02 -0.0183333 0
0.0166667 -0.0183333 0
0.0133333 -0.0183333 0
0.01 -0.0183333 0
0.00666667 -0.0183333 0
0.00333333 -0.0183333 0
0 -0.0183333 0
0.1 -0.0216667 0
0.0966667 -0.0216667 0
0.0933333 -0.0216667 0
0.09 -0.0216667 0
0.0866667 -0.0216667 0
0.0833333 -0.0216667 0
0.08 -0.0216667 0
0.0766667 -0.0216667 0
0.0733333 -0.0216667 0
0.07 -0.0216667 0
0.0666667 -0.0216667 0
0.0633333 -0.0216667 0
0.06 -0.0216667 0
0.0566667 -0.0216667 0
0.0533333 -0.0216667 0
0.05 -0.0216667 0
0.0466667 -0.0216667 0
0.0433333 -0.0216667 0
0.04 -0.0216667 0
0.0366667 -0.0216667 0
0.0333333 -0.0216667 0
0.03 -0.0216667 0
0.0266667 -0.0216667 0
0.0233333 -0.0216667 0
0.02 -0.0216667 0
0.0166667 -0.0216667 0
0.0133333 -0.0216667 0
0.01 -0.0216667 0
0.00666667 -0.0216667 0
0.00333333 -0.0216667 0
0 -0.0216667 0
0.1 -0.025 0
0.0966667 -0.025 0
0.0933333 -0.025 0
0.09 -0.025 0
0.0866667 -0.025 0
0.0833333 -0.025 0
0.08 -0.025 0
0.0766667 -0.025 0
0.0733333 -0.025 0
0.07 -0.025 0
0.0666667 -0.025 0
0.0633333 -0.025 0
0.06 -0.025 0
0.0566667 -0.025 0
0.0533333 -0.025 0
0.05 -0.025 0
0.0466667 -0.025 0
0.0433333 -0.025 0
0.04 -0.025 0
0.0366667 -0.025 0
0.0333333 -0.025 0
0.03 -0.025 0
0.0266667 -0.025 0
0.0233333 -0.025 0
0.02 -0.025 0
0.0166667 -0.025 0
0.0133333 -0.025 0
0.01 -0.025 0
0.00666667 -0.025 0
0.00333333 -0.025 0
0 -0.025 0
0.1 -0.0283333 0
0.0966667 -0.0283333 0
0.0933333 -0.0283333 0
0.09 -0.0283333 0
0.0866667 -0.0283333 0
0.0833333 -0.0283333 0
0.08 -0.0283333 0
0.0766667 -0.0283333 0
0.0733333 -0.0283333 0
0.07 -0.0283333 0
0.0666667 -0.0283333 0
0.0633333 -0.0283333 0
0.06 -0.0283333 0
0.0566667 -0.0283333 0
0.0533333 -0.0283333 0
0.05 -0.0283333 0
0.0466667 -0.0283333 0
0.0433333 -0.0283333 0
0.04 -0.0283333 0
0.0366667 -0.0283333 0
0.0333333 -0.0283333 0
0.03 -0.0283333 0
0.0266667 -0.0283333 0
0.0233333 -0.0283333 0
0.02 -0.0283333 0
0.0166667 -0.0283333 0
0.0133333 -0.0283333 0
0.01 -0.0283333 0
0.00666667 -0.0283333 0
0.00333333 -0.0283333 0
0 -0.0283333 0
0.1 -0.0316667 0
0.0966667 -0.0316667 0
0.0933333 -0.0316667 0
0.09 -0.0316667 0
0.0866667 -0.0316667 0
0.0833333 -0.0316667 0
0.08 -0.0316667 0
0.0766667 -0.0316667 0
0.0733333 -0.0316667 0
0.07 -0.0316667 0
0.0666667 -0.0316667 0
0.0633333 -0.0316667 0
0.06 -0.0316667 0
0.0566667 -0.0316667 0
0.0533333 -0.0316667 0
0.05 -0.0316667 0
0.0466667 -0.0316667 0
0.0433333 -0.0316667 0
0.04 -0.0316667 0
0.0366667 -0.0316667 0
0.0333333 -0.0316667 0
0.03 -0.0316667 0
0.0266667 -0.0316667 0
0.0233333 -0.0316667 0
0.02 -0.0316667 0
0.0166667 -0.0316667 0
0.0133333 -0.0316667 0
0.01 -0.0316667 0
0.00666667 -0.0316667 0
0.00333333 -0.0316667 0
0 -0.0316667 0
0.1 -0.035 0
0.0966667 -0.035 0
0.0933333 -0.035 0
0.09 -0.035 0
0.0866667 -0.035 0
0.0833333 -0.035 0
0.08 -0.035 0
0.0766667 -0.035 0
0.0733333 -0.035 0
0.07 -0.035 0
0.0666667 -0.035 0
0.0633333 -0.035 0
0.06 -0.035 0
0.0566667 -0.035 0
0.0533333 -0.035 0
0.05 -0.035 0
0.0466667 -0.035 0
0.0433333 -0.035 0
0.04 -0.035 0
0.0366667 -0.035 0
0.0333333 -0.035 0
0.03 -0.035 0
0.0266667 -0.035 0
0.0233333 -0.035 0
0.02 -0.035 0
0.0166667 -0.035 0
0.0133333 -0.035 0
0.01 -0.035 0
0.00666667 -0.035 0
0.00333333 -0.035 0
0 -0.035 0
0.1 -0.0383333 0
0.0966667 -0.0383333 0
0.0933333 -0.0383333 0
0.09 -0.0383333 0
0.0866667 -0.0383333 0
0.0833333 -0.0383333 0
0.08 -0.0383333 0
0.0766667 -0.0383333 0
0.0733333 -0.0383333 0
0.07 -0.0383333 0
0.0666667 -0.0383333 0
0.0633333 -0.0383333 0
0.06 -0.0383333 0
0.0566667 -0.0383333 0
0.0533333 -0.0383333 0
0.05 -0.0383333 0
0.0466667 -0.0383333 0
0.0433333 -0.0383333 0
0.04 -0.0383333 0
0.0366667 -0.0383333 0
0.0333333 -0.0383333 0
0.03 -0.0383333 0
0.0266667 -0.0383333 0
0.0233333 -0.0383333 0
0.02 -0.0383333 0
0.0166667 -0.0383333 0
0.0133333 -0.0383333 0
0.01 -0.0383333 0
0.00666667 -0.0383333 0
0.00333333 -0.0383333 0
0 -0.0383333 0
0.1 -0.0416667 0
0.0966667 -0.0416667 0
0.0933333 -0.0416667 0
0.09 -0.0416667 0
0.0866667 -0.0416667 0
0.0833333 -0.0416667 0
0.08 -0.0416667 0
0.0766667 -0.0416667 0
0.0733333 -0.0416667 0
0.07 -0.0416667 0
0.0666667 -0.0416667 0
0.0633333 -0.0416667 0
0.06 -0.0416667 0
0.0566667 -0.0416667 0
0.0533333 -0.0416667 0
0.05 -0.0416667 0
0.0466667 -0.0416667 0
0.0433333 -0.0416667 0
0.04 -0.0416667 0
0.0366667 -0.0416667 0
0.0333333 -0.0416667 0
0.03 -0.0416667 0
0.0266667 -0.0416667 0
0.0233333 -0.0416667 0
0.02 -0.0416667 0
0.0166667 -0.0416667 0
0.0133333 -0.0416667 0
0.01 -0.0416667 0
0.00666667 -0.0416667 0
0.00333333 -0.0416667 0
0 -0.0416667 0
0.1 -0.045 0
0.0966667 -0.045 0
0.0933333 -0.045 0
0.09 -0.045 0
0.0866667 -0.045 0
0.0833333 -0.045 0
0.08 -0.045 0
0.0766667 -0.045 0
0.0733333 -0.045 0
0.07 -0.045 0
0.0666667 -0.045 0
0.0633333 -0.045 0
0.06 -0.045 0
0.0566667 -0.045 0
0.0533333 -0.045 0
0.05 -0.045 0
0.0466667 -0.045 0
0.0433333 -0.045 0
0.04 -0.045 0
0.0366667 -0.045 0
0.0333333 -0.045 0
0.03 -0.045 0
0.0266667 -0.045 0
0.0233333 -0.045 0
0.02 -0.045 0
0.0166667 -0.045 0
0.0133333 -0.045 0
0.01 -0.045 0
0.00666667 -0.045 0
0.00333333 -0.045 0
0 -0.045 0
0.1 -0.0483333 0
0.0966667 -0.0483333 0
0.0933333 -0.0483333 0
0.09 -0.0483333 0
0.0866667 -0.0483333 0
[...]
POINT_DATA 961
SCALARS Temp float 1
LOOKUP_TABLE default
1054.026519
1048.350954
1043.010396
1038.016625
1033.380665
1029.112777
1025.222371
1021.718058
1018.607562
1015.897770
1013.594660
1011.703315
1010.227920
1009.171734
1008.537087
1008.325382
1008.537087
1009.171735
1010.227923
1011.703318
1013.594659
1015.897774
1018.607568
1021.718060
1025.222378
1029.112778
1033.380671
1038.016627
1043.010404
1048.350971
1054.026532
1048.350963
1042.454726
1036.906519
1031.718587
1026.902377
1022.468550
1018.426882
1014.786319
1011.554885
1008.739734
1006.347077
1004.382195
1002.849436
1001.752184
1001.092862
1000.872926
1001.092862
1001.752185
1002.849438
1004.382198
1006.347076
1008.739737
1011.554891
1014.786321
1018.426890
1022.468552
1026.902384
1031.718589
1036.906527
1042.454740
1048.350972
1043.010397
1036.906514
1031.162918
1025.792283
1020.806462
1016.216491
1012.032489
1008.263717
1004.918483
1002.004192
999.527273
997.493195
995.906457
994.770564
994.088022
993.860341
994.088023
994.770565
995.906460
997.493198
999.527272
1002.004195
1004.918489
1008.263720
1012.032497
1016.216492
1020.806469
1025.792285
1031.162925
1036.906527
1043.010404
1038.016622
1031.718576
1025.792278
1020.250805
1015.106387
1010.370411
1006.053317
1002.164662
998.713017
995.706024
993.150315
991.051534
989.414323
988.242297
987.538044
987.303120
987.538044
988.242298
989.414325
991.051537
993.150315
995.706027
998.713023
1002.164665
1006.053325
1010.370412
1015.106394
1020.250807
1025.792284
1031.718589
1038.016627
1033.380667
1026.902371
1020.806463
1015.106393
1009.814742
1004.943222
1000.502573
996.502625
992.952194
989.859141
987.230288
985.071440
983.387372
982.181803
981.457394
981.215746
981.457394
982.181804
983.387374
985.071443
987.230287
989.859144
992.952200
996.502627
1000.502581
1004.943223
1009.814748
1015.106394
1020.806469
1026.902383
1033.380672
1029.112775
1022.468541
1016.216488
1010.370413
1004.943218
999.946916
995.392522
991.290116
987.648742
984.476461
981.780272
979.566125
977.838920
976.602471
975.859507
975.611670
975.859507
976.602472
977.838923
979.566128
981.780271
984.476465
987.648748
991.290118
995.392529
999.946917
1004.943224
1010.370413
1016.216493
1022.468553
1029.112780
1025.222375
1018.426878
1012.032492
1006.053325
1000.502575
995.392528
990.734449
986.538648
982.814375
979.569874
976.812303
974.547749
972.781223
971.516626
970.756747
970.503267
970.756747
971.516626
972.781226
974.547753
976.812302
979.569878
982.814381
986.538650
990.734456
995.392528
1000.502581
1006.053325
1012.032497
1018.426890
1025.222379
1021.718058
1014.786311
1008.263716
1002.164666
996.502623
991.290118
986.538644
982.258717
978.459772
975.150218
972.337357
970.027399
968.225454
966.935501
966.160386
965.901824
966.160386
966.935501
968.225456
970.027403
972.337356
975.150222
978.459778
982.258719
986.538651
991.290118
996.502629
1002.164666
1008.263721
1014.786322
1021.718062
1018.607566
1011.554880
1004.918485
998.713025
992.952196
987.648749
982.814375
978.459776
974.594550
971.227255
968.365318
966.015057
964.181674
962.869215
962.080577
961.817504
962.080577
962.869215
964.181676
966.015061
968.365317
971.227258
974.594556
978.459778
982.814383
987.648749
992.952202
998.713025
1004.918490
1011.554892
1018.607569
1015.897770
1008.739726
1002.004191
995.706028
989.859139
984.476464
979.569870
975.150218
971.227250
967.809651
964.904961
962.519590
960.658817
959.326752
958.526332
958.259330
958.526333
959.326752
960.658820
962.519593
964.904959
967.809655
971.227257
975.150220
979.569878
984.476464
989.859144
995.706028
1002.004195
1008.739737
1015.897774
1013.594657
1006.347066
999.527269
993.150317
987.230283
981.780271
976.812296
972.337354
968.365311
964.904957
961.963929
959.548717
957.664667
956.315937
955.505505
955.235161
955.505505
956.315938
957.664670
959.548721
961.963928
964.904961
968.365317
972.337356
976.812304
981.780271
987.230289
993.150316
999.527274
1006.347077
1013.594661
1011.703316
1004.382187
997.493194
991.051539
985.071438
979.566128
974.547746
970.027400
966.015054
962.519591
959.548722
957.109004
955.205837
953.843423
953.024767
952.751681
953.024768
953.843423
955.205840
957.109008
959.548720
962.519594
966.015060
970.027402
974.547754
979.566128
985.071444
991.051538
997.493199
1004.382199
1011.703319
1010.227921
1002.849428
995.906457
989.414328
983.387370
977.838923
972.781219
968.225454
964.181670
960.658818
957.664670
955.205837
953.287758
951.914668
951.089598
950.814372
951.089598
951.914669
953.287760
955.205841
957.664669
960.658822
964.181676
968.225456
972.781227
977.838923
983.387376
989.414327
995.906461
1002.849440
1010.227924
1009.171733
1001.752175
994.770562
988.242301
982.181800
976.602473
971.516620
966.935499
962.869209
959.326751
956.315939
953.843421
951.914666
950.533934
949.704273
949.427515
949.704273
950.533935
951.914669
953.843424
956.315938
959.326754
962.869216
966.935502
971.516628
976.602472
982.181806
988.242300
994.770567
1001.752187
1009.171737
1008.537086
1001.092852
994.088020
987.538048
981.457391
975.859508
970.756741
966.160385
962.080571
958.526331
955.505507
953.024765
951.089596
949.704273
948.871852
948.594173
948.871852
949.704273
951.089599
953.024769
955.505505
958.526335
962.080578
966.160387
970.756750
975.859508
981.457397
987.538047
994.088025
1001.092864
1008.537090
1008.325381
1000.872916
993.860339
987.303124
981.215743
975.611671
970.503262
965.901823
961.817499
958.259329
955.235164
952.751679
950.814371
949.427515
948.594174
948.316189
948.594174
949.427516
950.814374
952.751683
955.235163
958.259333
961.817505
965.901826
970.503270
975.611671
981.215750
987.303123
993.860344
1000.872928
1008.325385
1008.537086
1001.092852
994.088020
987.538048
981.457391
975.859508
970.756741
966.160385
962.080571
958.526332
955.505507
953.024765
951.089596
949.704273
948.871852
948.594174
948.871852
949.704274
951.089600
953.024770
955.505506
958.526336
962.080578
966.160388
970.756750
975.859509
981.457397
987.538047
994.088025
1001.092864
1008.537090
1009.171733
1001.752175
994.770562
988.242301
982.181800
976.602473
971.516620
966.935499
962.869209
959.326751
956.315939
953.843421
951.914666
950.533935
949.704273
949.427515
949.704273
950.533936
951.914670
953.843425
956.315938
959.326755
962.869216
966.935502
971.516629
976.602473
982.181806
988.242301
994.770567
1001.752187
1009.171738
1010.227921
1002.849428
995.906456
989.414328
983.387370
977.838923
972.781219
968.225454
964.181670
960.658818
957.664671
955.205837
953.287758
951.914668
951.089598
950.814373
951.089599
951.914669
953.287761
955.205841
957.664670
960.658822
964.181677
968.225457
972.781228
977.838924
983.387377
989.414328
995.906462
1002.849441
1010.227925
1011.703315
1004.382187
997.493194
991.051539
985.071438
979.566128
974.547746
970.027400
966.015054
962.519591
959.548722
957.109005
955.205838
953.843423
953.024768
952.751682
953.024768
953.843424
955.205841
957.109009
959.548721
962.519596
966.015062
970.027403
974.547755
979.566129
985.071445
991.051540
997.493200
1004.382200
1011.703321
1013.594658
1006.347067
999.527270
993.150318
987.230284
981.780273
976.812297
972.337356
968.365312
964.904959
961.963931
959.548719
957.664669
956.315939
955.505507
955.235164
955.505507
956.315940
957.664672
959.548724
961.963931
964.904964
968.365320
972.337360
976.812307
981.780274
987.230292
993.150320
999.527277
1006.347080
1013.594664
1015.897768
1008.739724
1002.004189
995.706026
989.859137
984.476462
979.569868
975.150216
971.227249
967.809650
964.904959
962.519589
960.658816
959.326751
958.526332
958.259329
958.526332
959.326752
960.658820
962.519593
964.904959
967.809655
971.227257
975.150220
979.569878
984.476464
989.859145
995.706028
1002.004196
1008.739738
1015.897775
1018.607567
1011.554881
1004.918486
998.713027
992.952198
987.648750
982.814377
978.459777
974.594552
971.227257
968.365320
966.015060
964.181677
962.869218
962.080580
961.817507
962.080581
962.869219
964.181680
966.015065
968.365321
971.227262
974.594560
978.459782
982.814387
987.648753
992.952206
998.713029
1004.918494
1011.554896
1018.607574
1021.718055
1014.786308
1008.263713
1002.164664
996.502620
991.290116
986.538641
982.258714
978.459770
975.150216
972.337356
970.027397
968.225452
966.935499
966.160385
965.901823
966.160386
966.935500
968.225456
970.027402
972.337356
975.150222
978.459778
982.258719
986.538652
991.290119
996.502630
1002.164667
1008.263722
1014.786324
1021.718063
1025.222377
1018.426880
1012.032494
1006.053328
1000.502578
995.392531
990.734452
986.538652
982.814379
979.569879
976.812308
974.547754
972.781228
971.516631
970.756752
970.503273
970.756753
971.516632
972.781232
974.547759
976.812309
979.569884
982.814388
986.538657
990.734463
995.392535
1000.502588
1006.053332
1012.032504
1018.426897
1025.222385
1029.112774
1022.468540
1016.216487
1010.370412
1004.943217
999.946915
995.392521
991.290116
987.648743
984.476462
981.780272
979.566126
977.838921
976.602473
975.859508
975.611671
975.859509
976.602474
977.838925
979.566131
981.780273
984.476468
987.648751
991.290122
995.392533
999.946920
1004.943228
1010.370417
1016.216498
1022.468557
1029.112784
1033.380661
1026.902366
1020.806457
1015.106388
1009.814737
1004.943217
1000.502569
996.502620
992.952190
989.859137
987.230284
985.071436
983.387368
982.181799
981.457391
981.215743
981.457391
982.181801
983.387372
985.071441
987.230285
989.859143
992.952199
996.502626
1000.502580
1004.943223
1009.814748
1015.106394
1020.806470
1026.902385
1033.380673
1038.016621
1031.718575
1025.792277
1020.250805
1015.106388
1010.370412
1006.053319
1002.164664
998.713019
995.706026
993.150318
991.051537
989.414326
988.242301
987.538048
987.303124
987.538048
988.242302
989.414330
991.051542
993.150319
995.706032
998.713028
1002.164670
1006.053331
1010.370418
1015.106400
1020.250813
1025.792292
1031.718596
1038.016635
1043.010390
1036.906507
1031.162911
1025.792277
1020.806457
1016.216486
1012.032485
1008.263713
1004.918479
1002.004188
999.527270
997.493192
995.906455
994.770562
994.088020
993.860339
994.088021
994.770563
995.906458
997.493197
999.527271
1002.004194
1004.918488
1008.263719
1012.032497
1016.216493
1020.806470
1025.792287
1031.162928
1036.906531
1043.010408
1048.350962
1042.454725
1036.906520
1031.718589
1026.902380
1022.468554
1018.426886
1014.786323
1011.554890
1008.739739
1006.347082
1004.382201
1002.849442
1001.752191
1001.092868
1000.872932
1001.092869
1001.752192
1002.849446
1004.382206
1006.347084
1008.739745
1011.554899
1014.786330
1018.426898
1022.468561
1026.902393
1031.718599
1036.906538
1042.454753
1048.350986
1054.026509
1048.350946
1043.010391
1038.016621
1033.380662
1029.112775
1025.222369
1021.718056
1018.607561
1015.897769
1013.594659
1011.703314
1010.227920
1009.171734
1008.537087
1008.325382
1008.537088
1009.171735
1010.227923
1011.703319
1013.594660
1015.897775
1018.607570
1021.718062
1025.222381
1029.112781
1033.380675
1038.016632
1043.010409
1048.350979
1054.026544
