# vtk DataFile Version 2.0
Unstructured Grid Example
ASCII
DATASET UNSTRUCTURED_GRID

POINTS 961 float
0.1 0.005 0
0.0966667 0.005 0
0.0933333 0.005 0
0.09 0.005 0
0.0866667 0.005 0
0.0833333 0.005 0
0.08 0.005 0
0.0766667 0.005 0
0.0733333 0.005 0
0.07 0.005 0
0.0666667 0.005 0
0.0633333 0.005 0
0.06 0.005 0
0.0566667 0.005 0
0.0533333 0.005 0
0.05 0.005 0
0.0466667 0.005 0
0.0433333 0.005 0
0.04 0.005 0
0.0366667 0.005 0
0.0333333 0.005 0
0.03 0.005 0
0.0266667 0.005 0
0.0233333 0.005 0
0.02 0.005 0
0.0166667 0.005 0
0.0133333 0.005 0
0.01 0.005 0
0.00666667 0.005 0
0.00333333 0.005 0
0 0.005 0
0.1 0.00166667 0
0.0966667 0.00166667 0
0.0933333 0.00166667 0
0.09 0.00166667 0
0.0866667 0.00166667 0
0.0833333 0.00166667 0
0.08 0.00166667 0
0.0766667 0.00166667 0
0.0733333 0.00166667 0
0.07 0.00166667 0
0.0666667 0.00166667 0
0.0633333 0.00166667 0
0.06 0.00166667 0
0.0566667 0.00166667 0
0.0533333 0.00166667 0
0.05 0.00166667 0
0.0466667 0.00166667 0
0.0433333 0.00166667 0
0.04 0.00166667 0
0.0366667 0.00166667 0
0.0333333 0.00166667 0
0.03 0.00166667 0
0.0266667 0.00166667 0
0.0233333 0.00166667 0
0.02 0.00166667 0
0.0166667 0.00166667 0
0.0133333 0.00166667 0
0.01 0.00166667 0
0.00666667 0.00166667 0
0.00333333 0.00166667 0
0 0.00166667 0
0.1 -0.00166667 0
0.0966667 -0.00166667 0
0.0933333 -0.00166667 0
0.09 -0.00166667 0
0.0866667 -0.00166667 0
0.0833333 -0.00166667 0
0.08 -0.00166667 0
0.0766667 -0.00166667 0
0.0733333 -0.00166667 0
0.07 -0.00166667 0
0.0666667 -0.00166667 0
0.0633333 -0.00166667 0
0.06 -0.00166667 0
0.0566667 -0.00166667 0
0.0533333 -0.00166667 0
0.05 -0.00166667 0
0.0466667 -0.00166667 0
0.0433333 -0.00166667 0
0.04 -0.00166667 0
0.0366667 -0.00166667 0
0.0333333 -0.00166667 0
0.03 -0.00166667 0
0.0266667 -0.00166667 0
0.0233333 -0.00166667 0
0.02 -0.00166667 0
0.0166667 -0.00166667 0
0.0133333 -0.00166667 0
0.01 -0.00166667 0
0.00666667 -0.00166667 0
0.00333333 -0.00166667 0
0 -0.00166667 0
0.1 -0.005 0
0.0966667 -0.005 0
0.0933333 -0.005 0
0.09 -0.005 0
0.0866667 -0.005 0
0.0833333 -0.005 0
0.08 -0.005 0
0.0766667 -0.005 0
0.0733333 -0.005 0
0.07 -0.005 0
0.0666667 -0.005 0
0.0633333 -0.005 0
0.06 -0.005 0
0.0566667 -0.005 0
0.0533333 -0.005 0
0.05 -0.005 0
0.0466667 -0.005 0
0.0433333 -0.005 0
0.04 -0.005 0
0.0366667 -0.005 0
0.0333333 -0.005 0
0.03 -0.005 0
0.0266667 -0.005 0
0.0233333 -0.005 0
0.02 -0.005 0
0.0166667 -0.005 0
0.0133333 -0.005 0
0.01 -0.005 0
0.00666667 -0.005 0
0.00333333 -0.005 0
0 -0.005 0
0.1 -0.00833333 0
0.0966667 -0.00833333 0
0.0933333 -0.00833333 0
0.09 -0.00833333 0
0.0866667 -0.00833333 0
0.0833333 -0.00833333 0
0.08 -0.00833333 0
0.0766667 -0.00833333 0
0.0733333 -0.00833333 0
0.07 -0.00833333 0
0.0666667 -0.00833333 0
0.0633333 -0.00833333 0
0.06 -0.00833333 0
0.0566667 -0.00833333 0
0.0533333 -0.00833333 0
0.05 -0.00833333 0
0.0466667 -0.00833333 0
0.0433333 -0.00833333 0
0.04 -0.00833333 0
0.0366667 -0.00833333 0
0.0333333 -0.00833333 0
0.03 -0.00833333 0
0.0266667 -0.00833333 0
0.0233333 -0.00833333 0
0.02 -0.00833333 0
0.0166667 -0.00833333 0
0.0133333 -0.00833333 0
0.01 -0.00833333 0
0.00666667 -0.00833333 0
0.00333333 -0.00833333 0
0 -0.00833333 0
0.1 -0.0116667 0
0.0966667 -0.0116667 0
0.0933333 -0.0116667 0
0.09 -0.0116667 0
0.0866667 -0.0116667 0
0.0833333 -0.0116667 0
0.08 -0.0116667 0
0.0766667 -0.0116667 0
0.0733333 -0.0116667 0
0.07 -0.0116667 0
0.0666667 -0.0116667 0
0.0633333 -0.0116667 0
0.06 -0.0116667 0
0.0566667 -0.0116667 0
0.0533333 -0.0116667 0
0.05 -0.0116667 0
0.0466667 -0.0116667 0
0.0433333 -0.0116667 0
0.04 -0.0116667 0
0.0366667 -0.0116667 0
0.0333333 -0.0116667 0
0.03 -0.0116667 0
0.0266667 -0.0116667 0
0.0233333 -0.0116667 0
0.02 -0.0116667 0
0.0166667 -0.0116667 0
0.0133333 -0.0116667 0
0.01 -0.0116667 0
0.00666667 -0.0116667 0
0.00333333 -0.0116667 0
0 -0.0116667 0
0.1 -0.015 0
0.0966667 -0.015 0
0.0933333 -0.015 0
0.09 -0.015 0
0.0866667 -0.015 0
0.0833333 -0.015 0
0.08 -0.015 0
0.0766667 -0.015 0
0.0733333 -0.015 0
0.07 -0.015 0
0.0666667 -0.015 0
0.0633333 -0.015 0
0.06 -0.015 0
0.0566667 -0.015 0
0.0533333 -0.015 0
0.05 -0.015 0
0.0466667 -0.015 0
0.0433333 -0.015 0
0.04 -0.015 0
0.0366667 -0.015 0
0.0333333 -0.015 0
0.03 -0.015 0
0.0266667 -0.015 0
0.0233333 -0.015 0
0.02 -0.015 0
0.0166667 -0.015 0
0.0133333 -0.015 0
0.01 -0.015 0
0.00666667 -0.015 0
0.00333333 -0.015 0
0 -0.015 0
0.1 -0.0183333 0
0.0966667 -0.0183333 0
0.0933333 -0.0183333 0
0.09 -0.0183333 0
0.0866667 -0.0183333 0
0.0833333 -0.0183333 0
0.08 -0.0183333 0
0.0766667 -0.0183333 0
0.0733333 -0.0183333 0
0.07 -0.0183333 0
0.0666667 -0.0183333 0
0.0633333 -0.0183333 0
0.06 -0.0183333 0
0.0566667 -0.0183333 0
0.0533333 -0.0183333 0
0.05 -0.0183333 0
0.0466667 -0.0183333 0
0.0433333 -0.0183333 0
0.04 -0.0183333 0
0.0366667 -0.0183333 0
0.0333333 -0.0183333 0
0.03 -0.0183333 0
0.0266667 -0.0183333 0
0.0233333 -0.0183333 0
0.02 -0.0183333 0
0.0166667 -0.0183333 0
0.0133333 -0.0183333 0
0.01 -0.0183333 0
0.00666667 -0.0183333 0
0.00333333 -0.0183333 0
0 -0.0183333 0
0.1 -0.0216667 0
0.0966667 -0.0216667 0
0.0933333 -0.0216667 0
0.09 -0.0216667 0
0.0866667 -0.0216667 0
0.0833333 -0.0216667 0
0.08 -0.0216667 0
0.0766667 -0.0216667 0
0.0733333 -0.0216667 0
0.07 -0.0216667 0
0.0666667 -0.0216667 0
0.0633333 -0.0216667 0
0.06 -0.0216667 0
0.0566667 -0.0216667 0
0.0533333 -0.0216667 0
0.05 -0.0216667 0
0.0466667 -0.0216667 0
0.0433333 -0.0216667 0
0.04 -0.0216667 0
0.0366667 -0.0216667 0
0.0333333 -0.0216667 0
0.03 -0.0216667 0
0.0266667 -0.0216667 0
0.0233333 -0.0216667 0
0.02 -0.0216667 0
0.0166667 -0.0216667 0
0.0133333 -0.0216667 0
0.01 -0.0216667 0
0.00666667 -0.0216667 0
0.00333333 -0.0216667 0
0 -0.0216667 0
0.1 -0.025 0
0.0966667 -0.025 0
0.0933333 -0.025 0
0.09 -0.025 0
0.0866667 -0.025 0
0.0833333 -0.025 0
0.08 -0.025 0
0.0766667 -0.025 0
0.0733333 -0.025 0
0.07 -0.025 0
0.0666667 -0.025 0
0.0633333 -0.025 0
0.06 -0.025 0
0.0566667 -0.025 0
0.0533333 -0.025 0
0.05 -0.025 0
0.0466667 -0.025 0
0.0433333 -0.025 0
0.04 -0.025 0
0.0366667 -0.025 0
0.0333333 -0.025 0
0.03 -0.025 0
0.0266667 -0.025 0
0.0233333 -0.025 0
0.02 -0.025 0
0.0166667 -0.025 0
0.0133333 -0.025 0
0.01 -0.025 0
0.00666667 -0.025 0
0.00333333 -0.025 0
0 -0.025 0
0.1 -0.0283333 0
0.0966667 -0.0283333 0
0.0933333 -0.0283333 0
0.09 -0.0283333 0
0.0866667 -0.0283333 0
0.0833333 -0.0283333 0
0.08 -0.0283333 0
0.0766667 -0.0283333 0
0.0733333 -0.0283333 0
0.07 -0.0283333 0
0.0666667 -0.0283333 0
0.0633333 -0.0283333 0
0.06 -0.0283333 0
0.0566667 -0.0283333 0
0.0533333 -0.0283333 0
0.05 -0.0283333 0
0.0466667 -0.0283333 0
0.0433333 -0.0283333 0
0.04 -0.0283333 0
0.0366667 -0.0283333 0
0.0333333 -0.0283333 0
0.03 -0.0283333 0
0.0266667 -0.0283333 0
0.0233333 -0.0283333 0
0.02 -0.0283333 0
0.0166667 -0.0283333 0
0.0133333 -0.0283333 0
0.01 -0.0283333 0
0.00666667 -0.0283333 0
0.00333333 -0.0283333 0
0 -0.0283333 0
0.1 -0.0316667 0
0.0966667 -0.0316667 0
0.0933333 -0.0316667 0
0.09 -0.0316667 0
0.0866667 -0.0316667 0
0.0833333 -0.0316667 0
0.08 -0.0316667 0
0.0766667 -0.0316667 0
0.0733333 -0.0316667 0
0.07 -0.0316667 0
0.0666667 -0.0316667 0
0.0633333 -0.0316667 0
0.06 -0.0316667 0
0.0566667 -0.0316667 0
0.0533333 -0.0316667 0
0.05 -0.0316667 0
0.0466667 -0.0316667 0
0.0433333 -0.0316667 0
0.04 -0.0316667 0
0.0366667 -0.0316667 0
0.0333333 -0.0316667 0
0.03 -0.0316667 0
0.0266667 -0.0316667 0
0.0233333 -0.0316667 0
0.02 -0.0316667 0
0.0166667 -0.0316667 0
0.0133333 -0.0316667 0
0.01 -0.0316667 0
0.00666667 -0.0316667 0
0.00333333 -0.0316667 0
0 -0.0316667 0
0.1 -0.035 0
0.0966667 -0.035 0
0.0933333 -0.035 0
0.09 -0.035 0
0.0866667 -0.035 0
0.0833333 -0.035 0
0.08 -0.035 0
0.0766667 -0.035 0
0.0733333 -0.035 0
0.07 -0.035 0
0.0666667 -0.035 0
0.0633333 -0.035 0
0.06 -0.035 0
0.0566667 -0.035 0
0.0533333 -0.035 0
0.05 -0.035 0
0.0466667 -0.035 0
0.0433333 -0.035 0
0.04 -0.035 0
0.0366667 -0.035 0
0.0333333 -0.035 0
0.03 -0.035 0
0.0266667 -0.035 0
0.0233333 -0.035 0
0.02 -0.035 0
0.0166667 -0.035 0
0.0133333 -0.035 0
0.01 -0.035 0
0.00666667 -0.035 0
0.00333333 -0.035 0
0 -0.035 0
0.1 -0.0383333 0
0.0966667 -0.0383333 0
0.0933333 -0.0383333 0
0.09 -0.0383333 0
0.0866667 -0.0383333 0
0.0833333 -0.0383333 0
0.08 -0.0383333 0
0.0766667 -0.0383333 0
0.0733333 -0.0383333 0
0.07 -0.0383333 0
0.0666667 -0.0383333 0
0.0633333 -0.0383333 0
0.06 -0.0383333 0
0.0566667 -0.0383333 0
0.0533333 -0.0383333 0
0.05 -0.0383333 0
0.0466667 -0.0383333 0
0.0433333 -0.0383333 0
0.04 -0.0383333 0
0.0366667 -0.0383333 0
0.0333333 -0.0383333 0
0.03 -0.0383333 0
0.0266667 -0.0383333 0
0.0233333 -0.0383333 0
0.02 -0.0383333 0
0.0166667 -0.0383333 0
0.0133333 -0.0383333 0
0.01 -0.0383333 0
0.00666667 -0.0383333 0
0.00333333 -0.0383333 0
0 -0.0383333 0
0.1 -0.0416667 0
0.0966667 -0.0416667 0
0.0933333 -0.0416667 0
0.09 -0.0416667 0
0.0866667 -0.0416667 0
0.0833333 -0.0416667 0
0.08 -0.0416667 0
0.0766667 -0.0416667 0
0.0733333 -0.0416667 0
0.07 -0.0416667 0
0.0666667 -0.0416667 0
0.0633333 -0.0416667 0
0.06 -0.0416667 0
0.0566667 -0.0416667 0
0.0533333 -0.0416667 0
0.05 -0.0416667 0
0.0466667 -0.0416667 0
0.0433333 -0.0416667 0
0.04 -0.0416667 0
0.0366667 -0.0416667 0
0.0333333 -0.0416667 0
0.03 -0.0416667 0
0.0266667 -0.0416667 0
0.0233333 -0.0416667 0
0.02 -0.0416667 0
0.0166667 -0.0416667 0
0.0133333 -0.0416667 0
0.01 -0.0416667 0
0.00666667 -0.0416667 0
0.00333333 -0.0416667 0
0 -0.0416667 0
0.1 -0.045 0
0.0966667 -0.045 0
0.0933333 -0.045 0
0.09 -0.045 0
0.0866667 -0.045 0
0.0833333 -0.045 0
0.08 -0.045 0
0.0766667 -0.045 0
0.0733333 -0.045 0
0.07 -0.045 0
0.0666667 -0.045 0
0.0633333 -0.045 0
0.06 -0.045 0
0.0566667 -0.045 0
0.0533333 -0.045 0
0.05 -0.045 0
0.0466667 -0.045 0
0.0433333 -0.045 0
0.04 -0.045 0
0.0366667 -0.045 0
0.0333333 -0.045 0
0.03 -0.045 0
0.0266667 -0.045 0
0.0233333 -0.045 0
0.02 -0.045 0
0.0166667 -0.045 0
0.0133333 -0.045 0
0.01 -0.045 0
0.00666667 -0.045 0
0.00333333 -0.045 0
0 -0.045 0
0.1 -0.0483333 0
0.0966667 -0.0483333 0
0.0933333 -0.0483333 0
0.09 -0.0483333 0
0.0866667 -0.0483333 0
[...]
POINT_DATA 961
SCALARS Temp float 1
LOOKUP_TABLE default
851.446085
837.894489
825.143731
813.221909
802.155264
791.968180
782.682967
774.320003
766.897532
760.431782
754.936818
750.424580
746.904881
744.385353
742.871448
742.366449
742.871449
744.385354
746.904886
750.424587
754.936816
760.431789
766.897544
774.320008
782.682983
791.968183
802.155279
813.221914
825.143749
837.894529
851.446116
837.894510
823.816030
810.569523
798.184186
786.687276
776.104124
766.457906
757.769795
750.058742
743.341607
737.633002
732.945330
729.288788
726.671302
725.098537
724.573904
725.098538
726.671303
729.288793
732.945338
737.633000
743.341615
750.058755
757.769800
766.457923
776.104126
786.687292
798.184191
810.569541
823.816064
837.894530
825.143735
810.569510
796.856553
784.035091
772.133341
761.177525
751.191636
742.197591
734.215010
727.261345
721.351724
716.498985
712.713685
710.004030
708.375884
707.832777
708.375885
710.004031
712.713691
716.498993
721.351721
727.261353
734.215023
742.197597
751.191653
761.177527
772.133357
784.035095
796.856569
810.569541
825.143750
813.221901
798.184161
784.035080
770.805847
758.525576
747.221323
736.917845
727.637755
719.401298
712.226481
706.128911
701.121837
697.216151
694.420318
692.740391
692.180011
692.740391
694.420319
697.216156
701.121845
706.128908
712.226489
719.401311
727.637761
736.917862
747.221324
758.525591
770.805849
784.035094
798.184190
813.221914
802.155269
786.687263
772.133343
758.525590
745.893951
734.266256
723.667972
714.122356
705.650235
698.270129
691.998093
686.847755
682.830317
679.954489
678.226495
677.650081
678.226496
679.954490
682.830323
686.847763
691.998090
698.270137
705.650248
714.122362
723.667989
734.266257
745.893965
758.525591
772.133356
786.687291
802.155280
791.968176
776.104101
761.177518
747.221328
734.266247
722.340817
711.471155
701.681117
692.992061
685.422982
678.990346
673.708130
669.587823
666.638357
664.866117
664.274943
664.866117
666.638358
669.587829
673.708138
678.990343
685.422990
692.992074
701.681122
711.471172
722.340817
734.266260
747.221328
761.177529
776.104128
791.968186
782.682975
766.457896
751.191642
736.917864
723.667976
711.471170
700.354157
690.341336
681.454551
673.713229
667.134212
661.731793
657.517724
654.501140
652.688570
652.083944
652.688571
654.501141
657.517730
661.731801
667.134208
673.713237
681.454564
690.341341
700.354174
711.471169
723.667989
736.917863
751.191653
766.457923
782.682984
774.320004
757.769777
742.197589
727.637766
714.122352
701.681123
690.341327
680.127851
671.062975
663.166519
656.455659
650.944976
646.646458
643.569422
641.720528
641.103786
641.720529
643.569423
646.646464
650.944984
656.455655
663.166527
671.062989
680.127856
690.341344
701.681122
714.122365
727.637765
742.197599
757.769803
774.320012
766.897540
750.058732
734.215016
719.401318
705.650239
692.992076
681.454550
671.062985
661.840047
653.805902
646.978026
641.371256
636.997785
633.867095
631.985963
631.358467
631.985964
633.867097
636.997791
641.371264
646.978023
653.805910
661.840061
671.062989
681.454567
692.992074
705.650251
719.401315
734.215026
750.058757
766.897548
760.431783
743.341588
727.261343
712.226492
698.270124
685.422988
673.713219
663.166518
653.805892
645.651806
638.721997
633.031523
628.592761
625.415334
623.506119
622.869254
623.506119
625.415335
628.592768
633.031532
638.721993
645.651814
653.805906
663.166523
673.713237
685.422986
698.270136
712.226489
727.261352
743.341614
760.431790
754.936813
737.632977
721.351715
706.128916
691.998081
678.990345
667.134195
656.455651
646.978009
638.721990
631.705553
625.943943
621.449693
618.232545
616.299463
615.654637
616.299463
618.232546
621.449699
625.943951
631.705549
638.721998
646.978023
656.455656
667.134212
678.990343
691.998094
706.128912
721.351724
737.633003
754.936820
750.424582
732.945313
716.498984
701.121850
686.847752
673.708138
661.731785
650.944978
641.371248
633.031526
625.943953
620.123930
615.584115
612.334350
610.381670
609.730306
610.381670
612.334351
615.584121
620.123938
625.943949
633.031534
641.371262
650.944982
661.731803
673.708136
686.847764
701.121847
716.498994
732.945339
750.424589
746.904883
729.288769
712.713684
697.216163
682.830313
669.587830
657.517715
646.646459
636.997776
628.592763
621.449702
615.584114
611.008757
607.733550
605.765582
605.109119
605.765583
607.733551
611.008764
615.584122
621.449698
628.592771
636.997790
646.646463
657.517733
669.587828
682.830326
697.216160
712.713693
729.288795
746.904890
744.385351
726.671280
710.004025
694.420327
679.954482
666.638361
654.501127
643.569419
633.867083
625.415332
618.232550
612.334345
607.733546
604.440127
602.461215
601.801102
602.461216
604.440128
607.733553
612.334354
618.232546
625.415340
633.867097
643.569423
654.501145
666.638359
679.954494
694.420324
710.004035
726.671306
744.385358
742.871447
725.098515
708.375879
692.740400
678.226488
664.866121
652.688558
641.720526
631.985951
623.506117
616.299468
610.381665
605.765579
602.461216
600.475729
599.813423
600.475730
602.461217
605.765585
610.381674
616.299465
623.506125
631.985966
641.720531
652.688576
664.866119
678.226501
692.740397
708.375889
725.098542
742.871454
742.366448
724.573883
707.832772
692.180020
677.650075
664.274948
652.083932
641.103784
631.358455
622.869253
615.654643
609.730302
605.109117
601.801103
599.813423
599.150385
599.813424
601.801105
605.109123
609.730311
615.654639
622.869261
631.358470
641.103789
652.083951
664.274947
677.650088
692.180018
707.832783
724.573910
742.366456
742.871447
725.098515
708.375879
692.740400
678.226488
664.866121
652.688558
641.720526
631.985951
623.506117
616.299469
610.381665
605.765579
602.461216
600.475730
599.813423
600.475730
602.461218
605.765586
610.381675
616.299465
623.506126
631.985966
641.720531
652.688577
664.866120
678.226502
692.740398
708.375890
725.098543
742.871455
744.385351
726.671279
710.004024
694.420326
679.954481
666.638360
654.501127
643.569419
633.867083
625.415332
618.232550
612.334346
607.733547
604.440127
602.461216
601.801103
602.461217
604.440129
607.733554
612.334355
618.232547
625.415341
633.867098
643.569425
654.501146
666.638360
679.954496
694.420325
710.004036
726.671308
744.385360
746.904882
729.288769
712.713683
697.216163
682.830313
669.587830
657.517715
646.646459
636.997776
628.592763
621.449702
615.584115
611.008758
607.733551
605.765583
605.109121
605.765584
607.733553
611.008765
615.584124
621.449700
628.592773
636.997792
646.646465
657.517735
669.587831
682.830328
697.216162
712.713696
729.288798
746.904892
750.424581
732.945312
716.498984
701.121850
686.847752
673.708138
661.731785
650.944978
641.371248
633.031526
625.943954
620.123931
615.584116
612.334351
610.381671
609.730308
610.381672
612.334353
615.584123
620.123941
625.943951
633.031536
641.371265
650.944986
661.731806
673.708139
686.847768
701.121851
716.498997
732.945342
750.424592
754.936815
737.632979
721.351717
706.128918
691.998084
678.990348
667.134198
656.455655
646.978013
638.721994
631.705557
625.943948
621.449698
618.232550
616.299468
615.654643
616.299469
618.232552
621.449706
625.943958
631.705556
638.722005
646.978030
656.455663
667.134220
678.990351
691.998101
706.128920
721.351732
737.633010
754.936827
760.431778
743.341584
727.261338
712.226487
698.270119
685.422983
673.713215
663.166514
653.805888
645.651802
638.721994
633.031520
628.592759
625.415331
623.506116
622.869252
623.506118
625.415334
628.592766
633.031531
638.721993
645.651814
653.805906
663.166523
673.713237
685.422987
698.270138
712.226490
727.261354
743.341616
760.431792
766.897543
750.058734
734.215018
719.401321
705.650242
692.992079
681.454555
671.062989
661.840052
653.805908
646.978032
641.371262
636.997792
633.867103
631.985971
631.358475
631.985972
633.867105
636.997800
641.371273
646.978032
653.805920
661.840070
671.062999
681.454578
692.992085
705.650262
719.401326
734.215036
750.058768
766.897558
774.319997
757.769770
742.197582
727.637760
714.122346
701.681117
690.341321
680.127846
671.062970
663.166514
656.455654
650.944972
646.646454
643.569418
641.720525
641.103783
641.720527
643.569421
646.646462
650.944983
656.455654
663.166527
671.062989
680.127856
690.341346
701.681124
714.122367
727.637767
742.197602
757.769806
774.320015
782.682980
766.457902
751.191648
736.917871
723.667983
711.471177
700.354165
690.341346
681.454561
673.713240
667.134223
661.731805
657.517736
654.501152
652.688583
652.083958
652.688585
654.501155
657.517745
661.731816
667.134224
673.713253
681.454580
690.341357
700.354190
711.471186
723.668006
736.917880
751.191670
766.457939
782.683000
791.968173
776.104098
761.177514
747.221325
734.266245
722.340815
711.471154
701.681117
692.992061
685.422983
678.990347
673.708132
669.587825
666.638360
664.866120
664.274947
664.866121
666.638363
669.587834
673.708143
678.990349
685.422996
692.992081
701.681130
711.471180
722.340825
734.266270
747.221337
761.177539
776.104138
791.968196
802.155256
786.687250
772.133330
758.525577
745.893939
734.266244
723.667960
714.122345
705.650224
698.270119
691.998083
686.847746
682.830308
679.954481
678.226487
677.650074
678.226489
679.954484
682.830317
686.847757
691.998085
698.270132
705.650245
714.122359
723.667987
734.266257
745.893966
758.525592
772.133358
786.687294
802.155283
813.221899
798.184159
784.035078
770.805847
758.525577
747.221325
736.917848
727.637759
719.401303
712.226486
706.128917
701.121844
697.216158
694.420326
692.740399
692.180020
692.740401
694.420329
697.216166
701.121856
706.128919
712.226500
719.401324
727.637774
736.917876
747.221339
758.525606
770.805865
784.035111
798.184208
813.221932
825.143719
810.569494
796.856538
784.035078
772.133329
761.177514
751.191626
742.197581
734.215001
727.261337
721.351716
716.498978
712.713678
710.004023
708.375878
707.832771
708.375879
710.004026
712.713687
716.498989
721.351718
727.261351
734.215022
742.197596
751.191654
761.177529
772.133360
784.035100
796.856576
810.569550
825.143760
837.894507
823.816028
810.569524
798.184191
786.687283
776.104132
766.457916
757.769805
750.058754
743.341620
737.633015
732.945344
729.288802
726.671317
725.098553
724.573920
725.098555
726.671320
729.288811
732.945356
737.633018
743.341634
750.058774
757.769820
766.457943
776.104147
786.687314
798.184215
810.569567
823.816094
837.894565
851.446061
837.894470
825.143719
813.221900
802.155257
791.968174
782.682962
774.319999
766.897529
760.431779
754.936816
750.424578
746.904880
744.385352
742.871448
742.366450
742.871450
744.385355
746.904888
750.424589
754.936819
760.431793
766.897548
774.320013
782.682989
791.968190
802.155288
813.221924
825.143763
837.894547
851.446144
