# vtk DataFile Version 2.0
Unstructured Grid Example
ASCII
DATASET UNSTRUCTURED_GRID

POINTS 961 float
0.1 0.005 0
0.0966667 0.005 0
0.0933333 0.005 0
0.09 0.005 0
0.0866667 0.005 0
0.0833333 0.005 0
0.08 0.005 0
0.0766667 0.005 0
0.0733333 0.005 0
0.07 0.005 0
0.0666667 0.005 0
0.0633333 0.005 0
0.06 0.005 0
0.0566667 0.005 0
0.0533333 0.005 0
0.05 0.005 0
0.0466667 0.005 0
0.0433333 0.005 0
0.04 0.005 0
0.0366667 0.005 0
0.0333333 0.005 0
0.03 0.005 0
0.0266667 0.005 0
0.0233333 0.005 0
0.02 0.005 0
0.0166667 0.005 0
0.0133333 0.005 0
0.01 0.005 0
0.00666667 0.005 0
0.00333333 0.005 0
0 0.005 0
0.1 0.00166667 0
0.0966667 0.00166667 0
0.0933333 0.00166667 0
0.09 0.00166667 0
0.0866667 0.00166667 0
0.0833333 0.00166667 0
0.08 0.00166667 0
0.0766667 0.00166667 0
0.0733333 0.00166667 0
0.07 0.00166667 0
0.0666667 0.00166667 0
0.0633333 0.00166667 0
0.06 0.00166667 0
0.0566667 0.00166667 0
0.0533333 0.00166667 0
0.05 0.00166667 0
0.0466667 0.00166667 0
0.0433333 0.00166667 0
0.04 0.00166667 0
0.0366667 0.00166667 0
0.0333333 0.00166667 0
0.03 0.00166667 0
0.0266667 0.00166667 0
0.0233333 0.00166667 0
0.02 0.00166667 0
0.0166667 0.00166667 0
0.0133333 0.00166667 0
0.01 0.00166667 0
0.00666667 0.00166667 0
0.00333333 0.00166667 0
0 0.00166667 0
0.1 -0.00166667 0
0.0966667 -0.00166667 0
0.0933333 -0.00166667 0
0.09 -0.00166667 0
0.0866667 -0.00166667 0
0.0833333 -0.00166667 0
0.08 -0.00166667 0
0.0766667 -0.00166667 0
0.0733333 -0.00166667 0
0.07 -0.00166667 0
0.0666667 -0.00166667 0
0.0633333 -0.00166667 0
0.06 -0.00166667 0
0.0566667 -0.00166667 0
0.0533333 -0.00166667 0
0.05 -0.00166667 0
0.0466667 -0.00166667 0
0.0433333 -0.00166667 0
0.04 -0.00166667 0
0.0366667 -0.00166667 0
0.0333333 -0.00166667 0
0.03 -0.00166667 0
0.0266667 -0.00166667 0
0.0233333 -0.00166667 0
0.02 -0.00166667 0
0.0166667 -0.00166667 0
0.0133333 -0.00166667 0
0.01 -0.00166667 0
0.00666667 -0.00166667 0
0.00333333 -0.00166667 0
0 -0.00166667 0
0.1 -0.005 0
0.0966667 -0.005 0
0.0933333 -0.005 0
0.09 -0.005 0
0.0866667 -0.005 0
0.0833333 -0.005 0
0.08 -0.005 0
0.0766667 -0.005 0
0.0733333 -0.005 0
0.07 -0.005 0
0.0666667 -0.005 0
0.0633333 -0.005 0
0.06 -0.005 0
0.0566667 -0.005 0
0.0533333 -0.005 0
0.05 -0.005 0
0.0466667 -0.005 0
0.0433333 -0.005 0
0.04 -0.005 0
0.0366667 -0.005 0
0.0333333 -0.005 0
0.03 -0.005 0
0.0266667 -0.005 0
0.0233333 -0.005 0
0.02 -0.005 0
0.0166667 -0.005 0
0.0133333 -0.005 0
0.01 -0.005 0
0.00666667 -0.005 0
0.00333333 -0.005 0
0 -0.005 0
0.1 -0.00833333 0
0.0966667 -0.00833333 0
0.0933333 -0.00833333 0
0.09 -0.00833333 0
0.0866667 -0.00833333 0
0.0833333 -0.00833333 0
0.08 -0.00833333 0
0.0766667 -0.00833333 0
0.0733333 -0.00833333 0
0.07 -0.00833333 0
0.0666667 -0.00833333 0
0.0633333 -0.00833333 0
0.06 -0.00833333 0
0.0566667 -0.00833333 0
0.0533333 -0.00833333 0
0.05 -0.00833333 0
0.0466667 -0.00833333 0
0.0433333 -0.00833333 0
0.04 -0.00833333 0
0.0366667 -0.00833333 0
0.0333333 -0.00833333 0
0.03 -0.00833333 0
0.0266667 -0.00833333 0
0.0233333 -0.00833333 0
0.02 -0.00833333 0
0.0166667 -0.00833333 0
0.0133333 -0.00833333 0
0.01 -0.00833333 0
0.00666667 -0.00833333 0
0.00333333 -0.00833333 0
0 -0.00833333 0
0.1 -0.0116667 0
0.0966667 -0.0116667 0
0.0933333 -0.0116667 0
0.09 -0.0116667 0
0.0866667 -0.0116667 0
0.0833333 -0.0116667 0
0.08 -0.0116667 0
0.0766667 -0.0116667 0
0.0733333 -0.0116667 0
0.07 -0.0116667 0
0.0666667 -0.0116667 0
0.0633333 -0.0116667 0
0.06 -0.0116667 0
0.0566667 -0.0116667 0
0.0533333 -0.0116667 0
0.05 -0.0116667 0
0.0466667 -0.0116667 0
0.0433333 -0.0116667 0
0.04 -0.0116667 0
0.0366667 -0.0116667 0
0.0333333 -0.0116667 0
0.03 -0.0116667 0
0.0266667 -0.0116667 0
0.0233333 -0.0116667 0
0.02 -0.0116667 0
0.0166667 -0.0116667 0
0.0133333 -0.0116667 0
0.01 -0.0116667 0
0.00666667 -0.0116667 0
0.00333333 -0.0116667 0
0 -0.0116667 0
0.1 -0.015 0
0.0966667 -0.015 0
0.0933333 -0.015 0
0.09 -0.015 0
0.0866667 -0.015 0
0.0833333 -0.015 0
0.08 -0.015 0
0.0766667 -0.015 0
0.0733333 -0.015 0
0.07 -0.015 0
0.0666667 -0.015 0
0.0633333 -0.015 0
0.06 -0.015 0
0.0566667 -0.015 0
0.0533333 -0.015 0
0.05 -0.015 0
0.0466667 -0.015 0
0.0433333 -0.015 0
0.04 -0.015 0
0.0366667 -0.015 0
0.0333333 -0.015 0
0.03 -0.015 0
0.0266667 -0.015 0
0.0233333 -0.015 0
0.02 -0.015 0
0.0166667 -0.015 0
0.0133333 -0.015 0
0.01 -0.015 0
0.00666667 -0.015 0
0.00333333 -0.015 0
0 -0.015 0
0.1 -0.0183333 0
0.0966667 -0.0183333 0
0.0933333 -0.0183333 0
0.09 -0.0183333 0
0.0866667 -0.0183333 0
0.0833333 -0.0183333 0
0.08 -0.0183333 0
0.0766667 -0.0183333 0
0.0733333 -0.0183333 0
0.07 -0.0183333 0
0.0666667 -0.0183333 0
0.0633333 -0.0183333 0
0.06 -0.0183333 0
0.0566667 -0.0183333 0
0.0533333 -0.0183333 0
0.05 -0.0183333 0
0.0466667 -0.0183333 0
0.0433333 -0.0183333 0
0.04 -0.0183333 0
0.0366667 -0.0183333 0
0.0333333 -0.0183333 0
0.03 -0.0183333 0
0.0266667 -0.0183333 0
0.0233333 -0.0183333 0
0.02 -0.0183333 0
0.0166667 -0.0183333 0
0.0133333 -0.0183333 0
0.01 -0.0183333 0
0.00666667 -0.0183333 0
0.00333333 -0.0183333 0
0 -0.0183333 0
0.1 -0.0216667 0
0.0966667 -0.0216667 0
0.0933333 -0.0216667 0
0.09 -0.0216667 0
0.0866667 -0.0216667 0
0.0833333 -0.0216667 0
0.08 -0.0216667 0
0.0766667 -0.0216667 0
0.0733333 -0.0216667 0
0.07 -0.0216667 0
0.0666667 -0.0216667 0
0.0633333 -0.0216667 0
0.06 -0.0216667 0
0.0566667 -0.0216667 0
0.0533333 -0.0216667 0
0.05 -0.0216667 0
0.0466667 -0.0216667 0
0.0433333 -0.0216667 0
0.04 -0.0216667 0
0.0366667 -0.0216667 0
0.0333333 -0.0216667 0
0.03 -0.0216667 0
0.0266667 -0.0216667 0
0.0233333 -0.0216667 0
0.02 -0.0216667 0
0.0166667 -0.0216667 0
0.0133333 -0.0216667 0
0.01 -0.0216667 0
0.00666667 -0.0216667 0
0.00333333 -0.0216667 0
0 -0.0216667 0
0.1 -0.025 0
0.0966667 -0.025 0
0.0933333 -0.025 0
0.09 -0.025 0
0.0866667 -0.025 0
0.0833333 -0.025 0
0.08 -0.025 0
0.0766667 -0.025 0
0.0733333 -0.025 0
0.07 -0.025 0
0.0666667 -0.025 0
0.0633333 -0.025 0
0.06 -0.025 0
0.0566667 -0.025 0
0.0533333 -0.025 0
0.05 -0.025 0
0.0466667 -0.025 0
0.0433333 -0.025 0
0.04 -0.025 0
0.0366667 -0.025 0
0.0333333 -0.025 0
0.03 -0.025 0
0.0266667 -0.025 0
0.0233333 -0.025 0
0.02 -0.025 0
0.0166667 -0.025 0
0.0133333 -0.025 0
0.01 -0.025 0
0.00666667 -0.025 0
0.00333333 -0.025 0
0 -0.025 0
0.1 -0.0283333 0
0.0966667 -0.0283333 0
0.0933333 -0.0283333 0
0.09 -0.0283333 0
0.0866667 -0.0283333 0
0.0833333 -0.0283333 0
0.08 -0.0283333 0
0.0766667 -0.0283333 0
0.0733333 -0.0283333 0
0.07 -0.0283333 0
0.0666667 -0.0283333 0
0.0633333 -0.0283333 0
0.06 -0.0283333 0
0.0566667 -0.0283333 0
0.0533333 -0.0283333 0
0.05 -0.0283333 0
0.0466667 -0.0283333 0
0.0433333 -0.0283333 0
0.04 -0.0283333 0
0.0366667 -0.0283333 0
0.0333333 -0.0283333 0
0.03 -0.0283333 0
0.0266667 -0.0283333 0
0.0233333 -0.0283333 0
0.02 -0.0283333 0
0.0166667 -0.0283333 0
0.0133333 -0.0283333 0
0.01 -0.0283333 0
0.00666667 -0.0283333 0
0.00333333 -0.0283333 0
0 -0.0283333 0
0.1 -0.0316667 0
0.0966667 -0.0316667 0
0.0933333 -0.0316667 0
0.09 -0.0316667 0
0.0866667 -0.0316667 0
0.0833333 -0.0316667 0
0.08 -0.0316667 0
0.0766667 -0.0316667 0
0.0733333 -0.0316667 0
0.07 -0.0316667 0
0.0666667 -0.0316667 0
0.0633333 -0.0316667 0
0.06 -0.0316667 0
0.0566667 -0.0316667 0
0.0533333 -0.0316667 0
0.05 -0.0316667 0
0.0466667 -0.0316667 0
0.0433333 -0.0316667 0
0.04 -0.0316667 0
0.0366667 -0.0316667 0
0.0333333 -0.0316667 0
0.03 -0.0316667 0
0.0266667 -0.0316667 0
0.0233333 -0.0316667 0
0.02 -0.0316667 0
0.0166667 -0.0316667 0
0.0133333 -0.0316667 0
0.01 -0.0316667 0
0.00666667 -0.0316667 0
0.00333333 -0.0316667 0
0 -0.0316667 0
0.1 -0.035 0
0.0966667 -0.035 0
0.0933333 -0.035 0
0.09 -0.035 0
0.0866667 -0.035 0
0.0833333 -0.035 0
0.08 -0.035 0
0.0766667 -0.035 0
0.0733333 -0.035 0
0.07 -0.035 0
0.0666667 -0.035 0
0.0633333 -0.035 0
0.06 -0.035 0
0.0566667 -0.035 0
0.0533333 -0.035 0
0.05 -0.035 0
0.0466667 -0.035 0
0.0433333 -0.035 0
0.04 -0.035 0
0.0366667 -0.035 0
0.0333333 -0.035 0
0.03 -0.035 0
0.0266667 -0.035 0
0.0233333 -0.035 0
0.02 -0.035 0
0.0166667 -0.035 0
0.0133333 -0.035 0
0.01 -0.035 0
0.00666667 -0.035 0
0.00333333 -0.035 0
0 -0.035 0
0.1 -0.0383333 0
0.0966667 -0.0383333 0
0.0933333 -0.0383333 0
0.09 -0.0383333 0
0.0866667 -0.0383333 0
0.0833333 -0.0383333 0
0.08 -0.0383333 0
0.0766667 -0.0383333 0
0.0733333 -0.0383333 0
0.07 -0.0383333 0
0.0666667 -0.0383333 0
0.0633333 -0.0383333 0
0.06 -0.0383333 0
0.0566667 -0.0383333 0
0.0533333 -0.0383333 0
0.05 -0.0383333 0
0.0466667 -0.0383333 0
0.0433333 -0.0383333 0
0.04 -0.0383333 0
0.0366667 -0.0383333 0
0.0333333 -0.0383333 0
0.03 -0.0383333 0
0.0266667 -0.0383333 0
0.0233333 -0.0383333 0
0.02 -0.0383333 0
0.0166667 -0.0383333 0
0.0133333 -0.0383333 0
0.01 -0.0383333 0
0.00666667 -0.0383333 0
0.00333333 -0.0383333 0
0 -0.0383333 0
0.1 -0.0416667 0
0.0966667 -0.0416667 0
0.0933333 -0.0416667 0
0.09 -0.0416667 0
0.0866667 -0.0416667 0
0.0833333 -0.0416667 0
0.08 -0.0416667 0
0.0766667 -0.0416667 0
0.0733333 -0.0416667 0
0.07 -0.0416667 0
0.0666667 -0.0416667 0
0.0633333 -0.0416667 0
0.06 -0.0416667 0
0.0566667 -0.0416667 0
0.0533333 -0.0416667 0
0.05 -0.0416667 0
0.0466667 -0.0416667 0
0.0433333 -0.0416667 0
0.04 -0.0416667 0
0.0366667 -0.0416667 0
0.0333333 -0.0416667 0
0.03 -0.0416667 0
0.0266667 -0.0416667 0
0.0233333 -0.0416667 0
0.02 -0.0416667 0
0.0166667 -0.0416667 0
0.0133333 -0.0416667 0
0.01 -0.0416667 0
0.00666667 -0.0416667 0
0.00333333 -0.0416667 0
0 -0.0416667 0
0.1 -0.045 0
0.0966667 -0.045 0
0.0933333 -0.045 0
0.09 -0.045 0
0.0866667 -0.045 0
0.0833333 -0.045 0
0.08 -0.045 0
0.0766667 -0.045 0
0.0733333 -0.045 0
0.07 -0.045 0
0.0666667 -0.045 0
0.0633333 -0.045 0
0.06 -0.045 0
0.0566667 -0.045 0
0.0533333 -0.045 0
0.05 -0.045 0
0.0466667 -0.045 0
0.0433333 -0.045 0
0.04 -0.045 0
0.0366667 -0.045 0
0.0333333 -0.045 0
0.03 -0.045 0
0.0266667 -0.045 0
0.0233333 -0.045 0
0.02 -0.045 0
0.0166667 -0.045 0
0.0133333 -0.045 0
0.01 -0.045 0
0.00666667 -0.045 0
0.00333333 -0.045 0
0 -0.045 0
0.1 -0.0483333 0
0.0966667 -0.0483333 0
0.0933333 -0.0483333 0
0.09 -0.0483333 0
0.0866667 -0.0483333 0
[...]
POINT_DATA 961
SCALARS Temp float 1
LOOKUP_TABLE default
1057.942851
1052.419556
1047.222280
1042.362487
1037.850906
1033.697521
1029.911491
1026.501195
1023.474152
1020.837061
1018.595740
1016.755138
1015.319327
1014.291478
1013.673857
1013.467832
1013.673858
1014.291478
1015.319330
1016.755142
1018.595740
1020.837064
1023.474157
1026.501198
1029.911498
1033.697523
1037.850912
1042.362490
1047.222288
1052.419573
1057.942864
1052.419565
1046.681518
1041.282165
1036.233420
1031.546424
1027.231553
1023.298319
1019.755428
1016.610691
1013.871068
1011.542603
1009.630437
1008.138801
1007.070987
1006.429354
1006.215318
1006.429354
1007.070988
1008.138803
1009.630440
1011.542602
1013.871071
1016.610696
1019.755431
1023.298326
1027.231555
1031.546431
1036.233422
1041.282173
1046.681533
1052.419573
1047.222281
1041.282160
1035.692659
1030.466113
1025.614057
1021.147231
1017.075481
1013.407822
1010.152337
1007.316234
1004.905769
1002.926263
1001.382096
1000.276678
999.612448
999.390875
999.612448
1000.276678
1001.382098
1002.926266
1004.905768
1007.316237
1010.152343
1013.407824
1017.075489
1021.147232
1025.614064
1030.466115
1035.692666
1041.282173
1047.222288
1042.362484
1036.233409
1030.466108
1025.073308
1020.066910
1015.457995
1011.256725
1007.472399
1004.113359
1001.187040
998.699899
996.657425
995.064139
993.923558
993.238199
993.009578
993.238199
993.923559
995.064142
996.657429
998.699898
1001.187043
1004.113364
1007.472401
1011.256733
1015.457996
1020.066916
1025.073309
1030.466115
1036.233422
1042.362490
1037.850908
1031.546419
1025.614058
1020.066916
1014.917234
1010.176413
1005.854903
1001.962269
998.507093
995.497023
992.938700
990.837771
989.198885
988.025661
987.320687
987.085523
987.320687
988.025661
989.198888
990.837775
992.938699
995.497027
998.507099
1001.962271
1005.854910
1010.176414
1014.917241
1020.066916
1025.614064
1031.546431
1037.850912
1033.697520
1027.231544
1021.147228
1015.457997
1010.176409
1005.314153
1000.881949
996.889607
993.345928
990.258756
987.634902
985.480159
983.799294
982.596017
981.872986
981.631798
981.872986
982.596018
983.799296
985.480162
987.634901
990.258759
993.345934
996.889609
1000.881956
1005.314154
1010.176415
1015.457998
1021.147233
1027.231556
1033.697524
1029.911495
1023.298315
1017.075484
1011.256733
1005.854904
1000.881955
996.348847
992.265616
988.641262
985.483808
982.800220
980.596422
978.877290
977.646620
976.907128
976.660449
976.907128
977.646621
978.877292
980.596425
982.800219
985.483811
988.641268
992.265618
996.348855
1000.881955
1005.854910
1011.256733
1017.075489
1023.298326
1029.911499
1026.501196
1019.755421
1013.407821
1007.472403
1001.962267
996.889609
992.265612
988.100511
984.403488
981.182727
978.445332
976.197348
974.443747
973.188402
972.434083
972.182459
972.434084
973.188403
974.443750
976.197351
978.445331
981.182730
984.403494
988.100513
992.265619
996.889609
1001.962273
1007.472403
1013.407826
1019.755432
1026.501199
1023.474155
1016.610687
1010.152340
1004.113366
998.507095
993.345934
988.641262
984.403492
980.641967
977.365013
974.579859
972.292654
970.508458
969.231211
968.463731
968.207716
968.463732
969.231211
970.508460
972.292657
974.579858
977.365016
980.641973
984.403494
988.641269
993.345934
998.507100
1004.113366
1010.152344
1016.610698
1023.474159
1020.837061
1013.871060
1007.316233
1001.187044
995.497021
990.258758
985.483804
981.182726
977.365009
974.039100
971.212340
968.890966
967.080116
965.783789
965.004844
964.745004
965.004844
965.783789
967.080119
968.890970
971.212338
974.039104
977.365015
981.182729
985.483811
990.258758
995.497027
1001.187043
1007.316237
1013.871071
1020.837064
1018.595738
1011.542593
1004.905765
998.699900
992.938695
987.634902
982.800213
978.445329
974.579852
971.212337
968.350213
965.999799
964.166296
962.853751
962.065062
961.801972
962.065062
962.853752
964.166299
965.999803
968.350212
971.212340
974.579858
978.445332
982.800220
987.634902
992.938701
998.699900
1004.905769
1011.542604
1018.595742
1016.755139
1009.630430
1002.926262
996.657431
990.837770
985.480162
980.596418
976.197349
972.292650
968.890967
965.999803
963.625541
961.773434
960.447572
959.650880
959.385121
959.650881
960.447573
961.773437
963.625545
965.999802
968.890971
972.292657
976.197351
980.596426
985.480162
990.837776
996.657430
1002.926267
1009.630441
1016.755143
1015.319328
1008.138793
1001.382095
995.064144
989.198884
983.799296
978.877286
974.443747
970.508454
967.080117
964.166300
961.773434
959.906815
958.570564
957.767630
957.499788
957.767630
958.570565
959.906818
961.773438
964.166298
967.080120
970.508460
974.443750
978.877294
983.799296
989.198889
995.064143
1001.382099
1008.138804
1015.319331
1014.291477
1007.070978
1000.276675
993.923561
988.025658
982.596019
977.646615
973.188401
969.231206
965.783788
962.853753
960.447570
958.570562
957.226874
956.419471
956.150139
956.419472
957.226875
958.570565
960.447574
962.853752
965.783791
969.231212
973.188403
977.646622
982.596018
988.025663
993.923561
1000.276680
1007.070990
1014.291480
1013.673857
1006.429345
999.612445
993.238203
987.320684
981.872987
976.907123
972.434082
968.463726
965.004843
962.065064
959.650879
957.767628
956.419472
955.609383
955.339155
955.609384
956.419472
957.767631
959.650882
962.065063
965.004847
968.463732
972.434085
976.907131
981.872987
987.320690
993.238202
999.612450
1006.429356
1013.673860
1013.467832
1006.215309
999.390873
993.009582
987.085520
981.631799
976.660444
972.182458
968.207711
964.745004
961.801974
959.385119
957.499787
956.150139
955.339155
955.068628
955.339156
956.150140
957.499790
959.385123
961.801973
964.745008
968.207718
972.182460
976.660452
981.631800
987.085526
993.009581
999.390877
1006.215321
1013.467835
1013.673857
1006.429345
999.612445
993.238203
987.320684
981.872987
976.907123
972.434082
968.463726
965.004843
962.065064
959.650879
957.767628
956.419472
955.609384
955.339155
955.609384
956.419472
957.767631
959.650883
962.065063
965.004847
968.463733
972.434085
976.907131
981.872988
987.320690
993.238202
999.612450
1006.429356
1013.673861
1014.291477
1007.070978
1000.276675
993.923561
988.025658
982.596019
977.646615
973.188401
969.231206
965.783788
962.853753
960.447570
958.570562
957.226875
956.419472
956.150139
956.419472
957.226875
958.570566
960.447574
962.853752
965.783792
969.231212
973.188404
977.646623
982.596019
988.025664
993.923561
1000.276681
1007.070990
1014.291481
1015.319328
1008.138793
1001.382095
995.064144
989.198883
983.799296
978.877286
974.443747
970.508454
967.080117
964.166300
961.773434
959.906815
958.570564
957.767630
957.499788
957.767631
958.570565
959.906818
961.773438
964.166299
967.080121
970.508461
974.443751
978.877295
983.799297
989.198890
995.064144
1001.382100
1008.138805
1015.319332
1016.755139
1009.630430
1002.926262
996.657430
990.837770
985.480162
980.596418
976.197349
972.292651
968.890967
965.999804
963.625542
961.773435
960.447573
959.650881
959.385122
959.650882
960.447574
961.773438
963.625546
965.999803
968.890972
972.292658
976.197352
980.596427
985.480163
990.837777
996.657431
1002.926268
1009.630442
1016.755144
1018.595739
1011.542594
1004.905766
998.699901
992.938696
987.634903
982.800214
978.445331
974.579854
971.212338
968.350215
965.999801
964.166298
962.853753
962.065064
961.801974
962.065065
962.853754
964.166301
965.999806
968.350215
971.212343
974.579861
978.445335
982.800223
987.634905
992.938704
998.699903
1004.905772
1011.542607
1018.595744
1020.837059
1013.871058
1007.316231
1001.187042
995.497019
990.258756
985.483802
981.182725
977.365007
974.039099
971.212338
968.890965
967.080115
965.783788
965.004843
964.745004
965.004844
965.783789
967.080119
968.890969
971.212338
974.039104
977.365015
981.182729
985.483811
990.258758
995.497027
1001.187044
1007.316238
1013.871072
1020.837065
1023.474156
1016.610688
1010.152341
1004.113368
998.507096
993.345935
988.641263
984.403494
980.641969
977.365015
974.579861
972.292656
970.508461
969.231214
968.463734
968.207720
968.463735
969.231215
970.508464
972.292661
974.579861
977.365020
980.641977
984.403498
988.641273
993.345938
998.507105
1004.113370
1010.152348
1016.610702
1023.474163
1026.501193
1019.755418
1013.407818
1007.472401
1001.962265
996.889607
992.265610
988.100509
984.403486
981.182725
978.445331
976.197346
974.443746
973.188401
972.434082
972.182458
972.434083
973.188402
974.443749
976.197351
978.445331
981.182730
984.403494
988.100514
992.265620
996.889610
1001.962274
1007.472404
1013.407827
1019.755433
1026.501201
1029.911497
1023.298317
1017.075486
1011.256736
1005.854907
1000.881958
996.348851
992.265620
988.641266
985.483812
982.800224
980.596426
978.877295
977.646625
976.907133
976.660455
976.907134
977.646626
978.877298
980.596431
982.800225
985.483818
988.641274
992.265625
996.348861
1000.881962
1005.854917
1011.256740
1017.075496
1023.298333
1029.911505
1033.697518
1027.231543
1021.147226
1015.457996
1010.176408
1005.314152
1000.881948
996.889606
993.345928
990.258756
987.634903
985.480160
983.799295
982.596019
981.872987
981.631799
981.872988
982.596020
983.799298
985.480165
987.634904
990.258762
993.345936
996.889612
1000.881959
1005.314157
1010.176419
1015.458002
1021.147237
1027.231560
1033.697528
1037.850902
1031.546413
1025.614052
1020.066910
1014.917229
1010.176408
1005.854898
1001.962264
998.507089
995.497019
992.938696
990.837768
989.198882
988.025657
987.320684
987.085520
987.320684
988.025659
989.198885
990.837772
992.938697
995.497025
998.507097
1001.962270
1005.854909
1010.176413
1014.917241
1020.066917
1025.614064
1031.546432
1037.850914
1042.362483
1036.233409
1030.466108
1025.073308
1020.066910
1015.457996
1011.256726
1007.472400
1004.113360
1001.187042
998.699901
996.657428
995.064142
993.923561
993.238203
993.009582
993.238203
993.923563
995.064146
996.657433
998.699902
1001.187048
1004.113369
1007.472407
1011.256738
1015.458002
1020.066922
1025.073316
1030.466122
1036.233429
1042.362497
1047.222275
1041.282153
1035.692653
1030.466108
1025.614052
1021.147226
1017.075477
1013.407818
1010.152334
1007.316230
1004.905766
1002.926260
1001.382093
1000.276675
999.612445
999.390872
999.612446
1000.276676
1001.382097
1002.926265
1004.905767
1007.316236
1010.152342
1013.407824
1017.075489
1021.147233
1025.614065
1030.466117
1035.692669
1041.282176
1047.222292
1052.419564
1046.681517
1041.282166
1036.233421
1031.546427
1027.231556
1023.298323
1019.755433
1016.610696
1013.871073
1011.542609
1009.630443
1008.138807
1007.070994
1006.429360
1006.215325
1006.429361
1007.070995
1008.138810
1009.630448
1011.542610
1013.871079
1016.610704
1019.755439
1023.298335
1027.231563
1031.546440
1036.233432
1041.282183
1046.681545
1052.419587
1057.942841
1052.419549
1047.222275
1042.362484
1037.850903
1033.697519
1029.911489
1026.501194
1023.474150
1020.837060
1018.595740
1016.755138
1015.319327
1014.291477
1013.673857
1013.467833
1013.673858
1014.291479
1015.319330
1016.755142
1018.595741
1020.837065
1023.474159
1026.501200
1029.911501
1033.697526
1037.850916
1042.362494
1047.222293
1052.419580
1057.942875
