# vtk DataFile Version 2.0
Unstructured Grid Example
ASCII
DATASET UNSTRUCTURED_GRID

POINTS 961 float
0.1 0.005 0
0.0966667 0.005 0
0.0933333 0.005 0
0.09 0.005 0
0.0866667 0.005 0
0.0833333 0.005 0
0.08 0.005 0
0.0766667 0.005 0
0.0733333 0.005 0
0.07 0.005 0
0.0666667 0.005 0
0.0633333 0.005 0
0.06 0.005 0
0.0566667 0.005 0
0.0533333 0.005 0
0.05 0.005 0
0.0466667 0.005 0
0.0433333 0.005 0
0.04 0.005 0
0.0366667 0.005 0
0.0333333 0.005 0
0.03 0.005 0
0.0266667 0.005 0
0.0233333 0.005 0
0.02 0.005 0
0.0166667 0.005 0
0.0133333 0.005 0
0.01 0.005 0
0.00666667 0.005 0
0.00333333 0.005 0
0 0.005 0
0.1 0.00166667 0
0.0966667 0.00166667 0
0.0933333 0.00166667 0
0.09 0.00166667 0
0.0866667 0.00166667 0
0.0833333 0.00166667 0
0.08 0.00166667 0
0.0766667 0.00166667 0
0.0733333 0.00166667 0
0.07 0.00166667 0
0.0666667 0.00166667 0
0.0633333 0.00166667 0
0.06 0.00166667 0
0.0566667 0.00166667 0
0.0533333 0.00166667 0
0.05 0.00166667 0
0.0466667 0.00166667 0
0.0433333 0.00166667 0
0.04 0.00166667 0
0.0366667 0.00166667 0
0.0333333 0.00166667 0
0.03 0.00166667 0
0.0266667 0.00166667 0
0.0233333 0.00166667 0
0.02 0.00166667 0
0.0166667 0.00166667 0
0.0133333 0.00166667 0
0.01 0.00166667 0
0.00666667 0.00166667 0
0.00333333 0.00166667 0
0 0.00166667 0
0.1 -0.00166667 0
0.0966667 -0.00166667 0
0.0933333 -0.00166667 0
0.09 -0.00166667 0
0.0866667 -0.00166667 0
0.0833333 -0.00166667 0
0.08 -0.00166667 0
0.0766667 -0.00166667 0
0.0733333 -0.00166667 0
0.07 -0.00166667 0
0.0666667 -0.00166667 0
0.0633333 -0.00166667 0
0.06 -0.00166667 0
0.0566667 -0.00166667 0
0.0533333 -0.00166667 0
0.05 -0.00166667 0
0.0466667 -0.00166667 0
0.0433333 -0.00166667 0
0.04 -0.00166667 0
0.0366667 -0.00166667 0
0.0333333 -0.00166667 0
0.03 -0.00166667 0
0.0266667 -0.00166667 0
0.0233333 -0.00166667 0
0.02 -0.00166667 0
0.0166667 -0.00166667 0
0.0133333 -0.00166667 0
0.01 -0.00166667 0
0.00666667 -0.00166667 0
0.00333333 -0.00166667 0
0 -0.00166667 0
0.1 -0.005 0
0.0966667 -0.005 0
0.0933333 -0.005 0
0.09 -0.005 0
0.0866667 -0.005 0
0.0833333 -0.005 0
0.08 -0.005 0
0.0766667 -0.005 0
0.0733333 -0.005 0
0.07 -0.005 0
0.0666667 -0.005 0
0.0633333 -0.005 0
0.06 -0.005 0
0.0566667 -0.005 0
0.0533333 -0.005 0
0.05 -0.005 0
0.0466667 -0.005 0
0.0433333 -0.005 0
0.04 -0.005 0
0.0366667 -0.005 0
0.0333333 -0.005 0
0.03 -0.005 0
0.0266667 -0.005 0
0.0233333 -0.005 0
0.02 -0.005 0
0.0166667 -0.005 0
0.0133333 -0.005 0
0.01 -0.005 0
0.00666667 -0.005 0
0.00333333 -0.005 0
0 -0.005 0
0.1 -0.00833333 0
0.0966667 -0.00833333 0
0.0933333 -0.00833333 0
0.09 -0.00833333 0
0.0866667 -0.00833333 0
0.0833333 -0.00833333 0
0.08 -0.00833333 0
0.0766667 -0.00833333 0
0.0733333 -0.00833333 0
0.07 -0.00833333 0
0.0666667 -0.00833333 0
0.0633333 -0.00833333 0
0.06 -0.00833333 0
0.0566667 -0.00833333 0
0.0533333 -0.00833333 0
0.05 -0.00833333 0
0.0466667 -0.00833333 0
0.0433333 -0.00833333 0
0.04 -0.00833333 0
0.0366667 -0.00833333 0
0.0333333 -0.00833333 0
0.03 -0.00833333 0
0.0266667 -0.00833333 0
0.0233333 -0.00833333 0
0.02 -0.00833333 0
0.0166667 -0.00833333 0
0.0133333 -0.00833333 0
0.01 -0.00833333 0
0.00666667 -0.00833333 0
0.00333333 -0.00833333 0
0 -0.00833333 0
0.1 -0.0116667 0
0.0966667 -0.0116667 0
0.0933333 -0.0116667 0
0.09 -0.0116667 0
0.0866667 -0.0116667 0
0.0833333 -0.0116667 0
0.08 -0.0116667 0
0.0766667 -0.0116667 0
0.0733333 -0.0116667 0
0.07 -0.0116667 0
0.0666667 -0.0116667 0
0.0633333 -0.0116667 0
0.06 -0.0116667 0
0.0566667 -0.0116667 0
0.0533333 -0.0116667 0
0.05 -0.0116667 0
0.0466667 -0.0116667 0
0.0433333 -0.0116667 0
0.04 -0.0116667 0
0.0366667 -0.0116667 0
0.0333333 -0.0116667 0
0.03 -0.0116667 0
0.0266667 -0.0116667 0
0.0233333 -0.0116667 0
0.02 -0.0116667 0
0.0166667 -0.0116667 0
0.0133333 -0.0116667 0
0.01 -0.0116667 0
0.00666667 -0.0116667 0
0.00333333 -0.0116667 0
0 -0.0116667 0
0.1 -0.015 0
0.0966667 -0.015 0
0.0933333 -0.015 0
0.09 -0.015 0
0.0866667 -0.015 0
0.0833333 -0.015 0
0.08 -0.015 0
0.0766667 -0.015 0
0.0733333 -0.015 0
0.07 -0.015 0
0.0666667 -0.015 0
0.0633333 -0.015 0
0.06 -0.015 0
0.0566667 -0.015 0
0.0533333 -0.015 0
0.05 -0.015 0
0.0466667 -0.015 0
0.0433333 -0.015 0
0.04 -0.015 0
0.0366667 -0.015 0
0.0333333 -0.015 0
0.03 -0.015 0
0.0266667 -0.015 0
0.0233333 -0.015 0
0.02 -0.015 0
0.0166667 -0.015 0
0.0133333 -0.015 0
0.01 -0.015 0
0.00666667 -0.015 0
0.00333333 -0.015 0
0 -0.015 0
0.1 -0.0183333 0
0.0966667 -0.0183333 0
0.0933333 -0.0183333 0
0.09 -0.0183333 0
0.0866667 -0.0183333 0
0.0833333 -0.0183333 0
0.08 -0.0183333 0
0.0766667 -0.0183333 0
0.0733333 -0.0183333 0
0.07 -0.0183333 0
0.0666667 -0.0183333 0
0.0633333 -0.0183333 0
0.06 -0.0183333 0
0.0566667 -0.0183333 0
0.0533333 -0.0183333 0
0.05 -0.0183333 0
0.0466667 -0.0183333 0
0.0433333 -0.0183333 0
0.04 -0.0183333 0
0.0366667 -0.0183333 0
0.0333333 -0.0183333 0
0.03 -0.0183333 0
0.0266667 -0.0183333 0
0.0233333 -0.0183333 0
0.02 -0.0183333 0
0.0166667 -0.0183333 0
0.0133333 -0.0183333 0
0.01 -0.0183333 0
0.00666667 -0.0183333 0
0.00333333 -0.0183333 0
0 -0.0183333 0
0.1 -0.0216667 0
0.0966667 -0.0216667 0
0.0933333 -0.0216667 0
0.09 -0.0216667 0
0.0866667 -0.0216667 0
0.0833333 -0.0216667 0
0.08 -0.0216667 0
0.0766667 -0.0216667 0
0.0733333 -0.0216667 0
0.07 -0.0216667 0
0.0666667 -0.0216667 0
0.0633333 -0.0216667 0
0.06 -0.0216667 0
0.0566667 -0.0216667 0
0.0533333 -0.0216667 0
0.05 -0.0216667 0
0.0466667 -0.0216667 0
0.0433333 -0.0216667 0
0.04 -0.0216667 0
0.0366667 -0.0216667 0
0.0333333 -0.0216667 0
0.03 -0.0216667 0
0.0266667 -0.0216667 0
0.0233333 -0.0216667 0
0.02 -0.0216667 0
0.0166667 -0.0216667 0
0.0133333 -0.0216667 0
0.01 -0.0216667 0
0.00666667 -0.0216667 0
0.00333333 -0.0216667 0
0 -0.0216667 0
0.1 -0.025 0
0.0966667 -0.025 0
0.0933333 -0.025 0
0.09 -0.025 0
0.0866667 -0.025 0
0.0833333 -0.025 0
0.08 -0.025 0
0.0766667 -0.025 0
0.0733333 -0.025 0
0.07 -0.025 0
0.0666667 -0.025 0
0.0633333 -0.025 0
0.06 -0.025 0
0.0566667 -0.025 0
0.0533333 -0.025 0
0.05 -0.025 0
0.0466667 -0.025 0
0.0433333 -0.025 0
0.04 -0.025 0
0.0366667 -0.025 0
0.0333333 -0.025 0
0.03 -0.025 0
0.0266667 -0.025 0
0.0233333 -0.025 0
0.02 -0.025 0
0.0166667 -0.025 0
0.0133333 -0.025 0
0.01 -0.025 0
0.00666667 -0.025 0
0.00333333 -0.025 0
0 -0.025 0
0.1 -0.0283333 0
0.0966667 -0.0283333 0
0.0933333 -0.0283333 0
0.09 -0.0283333 0
0.0866667 -0.0283333 0
0.0833333 -0.0283333 0
0.08 -0.0283333 0
0.0766667 -0.0283333 0
0.0733333 -0.0283333 0
0.07 -0.0283333 0
0.0666667 -0.0283333 0
0.0633333 -0.0283333 0
0.06 -0.0283333 0
0.0566667 -0.0283333 0
0.0533333 -0.0283333 0
0.05 -0.0283333 0
0.0466667 -0.0283333 0
0.0433333 -0.0283333 0
0.04 -0.0283333 0
0.0366667 -0.0283333 0
0.0333333 -0.0283333 0
0.03 -0.0283333 0
0.0266667 -0.0283333 0
0.0233333 -0.0283333 0
0.02 -0.0283333 0
0.0166667 -0.0283333 0
0.0133333 -0.0283333 0
0.01 -0.0283333 0
0.00666667 -0.0283333 0
0.00333333 -0.0283333 0
0 -0.0283333 0
0.1 -0.0316667 0
0.0966667 -0.0316667 0
0.0933333 -0.0316667 0
0.09 -0.0316667 0
0.0866667 -0.0316667 0
0.0833333 -0.0316667 0
0.08 -0.0316667 0
0.0766667 -0.0316667 0
0.0733333 -0.0316667 0
0.07 -0.0316667 0
0.0666667 -0.0316667 0
0.0633333 -0.0316667 0
0.06 -0.0316667 0
0.0566667 -0.0316667 0
0.0533333 -0.0316667 0
0.05 -0.0316667 0
0.0466667 -0.0316667 0
0.0433333 -0.0316667 0
0.04 -0.0316667 0
0.0366667 -0.0316667 0
0.0333333 -0.0316667 0
0.03 -0.0316667 0
0.0266667 -0.0316667 0
0.0233333 -0.0316667 0
0.02 -0.0316667 0
0.0166667 -0.0316667 0
0.0133333 -0.0316667 0
0.01 -0.0316667 0
0.00666667 -0.0316667 0
0.00333333 -0.0316667 0
0 -0.0316667 0
0.1 -0.035 0
0.0966667 -0.035 0
0.0933333 -0.035 0
0.09 -0.035 0
0.0866667 -0.035 0
0.0833333 -0.035 0
0.08 -0.035 0
0.0766667 -0.035 0
0.0733333 -0.035 0
0.07 -0.035 0
0.0666667 -0.035 0
0.0633333 -0.035 0
0.06 -0.035 0
0.0566667 -0.035 0
0.0533333 -0.035 0
0.05 -0.035 0
0.0466667 -0.035 0
0.0433333 -0.035 0
0.04 -0.035 0
0.0366667 -0.035 0
0.0333333 -0.035 0
0.03 -0.035 0
0.0266667 -0.035 0
0.0233333 -0.035 0
0.02 -0.035 0
0.0166667 -0.035 0
0.0133333 -0.035 0
0.01 -0.035 0
0.00666667 -0.035 0
0.00333333 -0.035 0
0 -0.035 0
0.1 -0.0383333 0
0.0966667 -0.0383333 0
0.0933333 -0.0383333 0
0.09 -0.0383333 0
0.0866667 -0.0383333 0
0.0833333 -0.0383333 0
0.08 -0.0383333 0
0.0766667 -0.0383333 0
0.0733333 -0.0383333 0
0.07 -0.0383333 0
0.0666667 -0.0383333 0
0.0633333 -0.0383333 0
0.06 -0.0383333 0
0.0566667 -0.0383333 0
0.0533333 -0.0383333 0
0.05 -0.0383333 0
0.0466667 -0.0383333 0
0.0433333 -0.0383333 0
0.04 -0.0383333 0
0.0366667 -0.0383333 0
0.0333333 -0.0383333 0
0.03 -0.0383333 0
0.0266667 -0.0383333 0
0.0233333 -0.0383333 0
0.02 -0.0383333 0
0.0166667 -0.0383333 0
0.0133333 -0.0383333 0
0.01 -0.0383333 0
0.00666667 -0.0383333 0
0.00333333 -0.0383333 0
0 -0.0383333 0
0.1 -0.0416667 0
0.0966667 -0.0416667 0
0.0933333 -0.0416667 0
0.09 -0.0416667 0
0.0866667 -0.0416667 0
0.0833333 -0.0416667 0
0.08 -0.0416667 0
0.0766667 -0.0416667 0
0.0733333 -0.0416667 0
0.07 -0.0416667 0
0.0666667 -0.0416667 0
0.0633333 -0.0416667 0
0.06 -0.0416667 0
0.0566667 -0.0416667 0
0.0533333 -0.0416667 0
0.05 -0.0416667 0
0.0466667 -0.0416667 0
0.0433333 -0.0416667 0
0.04 -0.0416667 0
0.0366667 -0.0416667 0
0.0333333 -0.0416667 0
0.03 -0.0416667 0
0.0266667 -0.0416667 0
0.0233333 -0.0416667 0
0.02 -0.0416667 0
0.0166667 -0.0416667 0
0.0133333 -0.0416667 0
0.01 -0.0416667 0
0.00666667 -0.0416667 0
0.00333333 -0.0416667 0
0 -0.0416667 0
0.1 -0.045 0
0.0966667 -0.045 0
0.0933333 -0.045 0
0.09 -0.045 0
0.0866667 -0.045 0
0.0833333 -0.045 0
0.08 -0.045 0
0.0766667 -0.045 0
0.0733333 -0.045 0
0.07 -0.045 0
0.0666667 -0.045 0
0.0633333 -0.045 0
0.06 -0.045 0
0.0566667 -0.045 0
0.0533333 -0.045 0
0.05 -0.045 0
0.0466667 -0.045 0
0.0433333 -0.045 0
0.04 -0.045 0
0.0366667 -0.045 0
0.0333333 -0.045 0
0.03 -0.045 0
0.0266667 -0.045 0
0.0233333 -0.045 0
0.02 -0.045 0
0.0166667 -0.045 0
0.0133333 -0.045 0
0.01 -0.045 0
0.00666667 -0.045 0
0.00333333 -0.045 0
0 -0.045 0
0.1 -0.0483333 0
0.0966667 -0.0483333 0
0.0933333 -0.0483333 0
0.09 -0.0483333 0
0.0866667 -0.0483333 0
[...]
POINT_DATA 961
SCALARS Temp float 1
LOOKUP_TABLE default
1104.668371
1100.961802
1097.474017
1094.212710
1091.185080
1088.397830
1085.857102
1083.568523
1081.537136
1079.767438
1078.263334
1077.028144
1076.064601
1075.374832
1074.960360
1074.822101
1074.960360
1075.374832
1076.064602
1077.028146
1078.263334
1079.767441
1081.537140
1083.568525
1085.857107
1088.397830
1091.185085
1094.212712
1097.474022
1100.961813
1104.668380
1100.961808
1097.111123
1093.487728
1090.099619
1086.954273
1084.058651
1081.419139
1079.041578
1076.931209
1075.092704
1073.530119
1072.246904
1071.245897
1070.529310
1070.098722
1069.955088
1070.098723
1070.529310
1071.245899
1072.246906
1073.530119
1075.092706
1076.931212
1079.041579
1081.419144
1084.058652
1086.954277
1090.099620
1093.487733
1097.111132
1100.961814
1097.474018
1093.487724
1089.736725
1086.229298
1082.973183
1079.975588
1077.243120
1074.781829
1072.597141
1070.693890
1069.076276
1067.747870
1066.711612
1065.969788
1065.524037
1065.375344
1065.524037
1065.969788
1066.711613
1067.747872
1069.076276
1070.693892
1072.597144
1074.781831
1077.243125
1079.975589
1082.973188
1086.229299
1089.736730
1093.487733
1097.474022
1094.212708
1090.099612
1086.229295
1082.610298
1079.250607
1076.157659
1073.338273
1070.798689
1068.544506
1066.580714
1064.911644
1063.540982
1062.471761
1061.706340
1061.246410
1061.092987
1061.246410
1061.706341
1062.471762
1063.540985
1064.911644
1066.580716
1068.544510
1070.798691
1073.338278
1076.157660
1079.250611
1082.610298
1086.229299
1090.099620
1094.212712
1091.185082
1086.954269
1082.973184
1079.250611
1075.794765
1072.613298
1069.713221
1067.100954
1064.782257
1062.762260
1061.045422
1059.635532
1058.535709
1057.748383
1057.275289
1057.117475
1057.275289
1057.748383
1058.535711
1059.635534
1061.045422
1062.762263
1064.782261
1067.100956
1069.713226
1072.613298
1075.794770
1079.250611
1082.973187
1086.954277
1091.185085
1088.397828
1084.058645
1079.975586
1076.157660
1072.613295
1069.350335
1066.375974
1063.696795
1061.318705
1059.246967
1057.486153
1056.040149
1054.912154
1054.104660
1053.619449
1053.457593
1053.619449
1054.104661
1054.912156
1056.040151
1057.486152
1059.246969
1061.318709
1063.696796
1066.375979
1069.350335
1072.613299
1076.157661
1079.975589
1084.058653
1088.397831
1085.857105
1081.419136
1077.243122
1073.338278
1069.713222
1066.375978
1063.333902
1060.593730
1058.161500
1056.042597
1054.241697
1052.762773
1051.609099
1050.783222
1050.286964
1050.121423
1050.286964
1050.783222
1051.609101
1052.762775
1054.241696
1056.042600
1058.161504
1060.593731
1063.333907
1066.375978
1069.713226
1073.338278
1077.243125
1081.419144
1085.857107
1083.568523
1079.041573
1074.781829
1070.798692
1067.100953
1063.696796
1060.593727
1057.798613
1055.317617
1053.156230
1051.319221
1049.810645
1048.633839
1047.791403
1047.285195
1047.116335
1047.285195
1047.791403
1048.633841
1049.810647
1051.319220
1053.156233
1055.317621
1057.798615
1060.593732
1063.696796
1067.100957
1070.798692
1074.781832
1079.041580
1083.568526
1081.537138
1076.931206
1072.597142
1068.544511
1064.782258
1061.318709
1058.161500
1055.317620
1052.793338
1050.594241
1048.725181
1047.190285
1045.992947
1045.135813
1044.620773
1044.448967
1044.620774
1045.135814
1045.992949
1047.190287
1048.725180
1050.594243
1052.793342
1055.317621
1058.161505
1061.318709
1064.782262
1068.544511
1072.597145
1076.931213
1081.537141
1079.767439
1075.092699
1070.693889
1066.580717
1062.762259
1059.246969
1056.042595
1053.156230
1050.594238
1048.362289
1046.465308
1044.907482
1043.692258
1042.822319
1042.299585
1042.125212
1042.299585
1042.822319
1043.692260
1044.907484
1046.465307
1048.362292
1050.594242
1053.156232
1056.042600
1059.246968
1062.762263
1066.580716
1070.693892
1075.092706
1079.767441
1078.263333
1073.530112
1069.076274
1064.911645
1061.045419
1057.486152
1054.241692
1051.319219
1048.725177
1046.465306
1044.544594
1042.967279
1041.736853
1040.856031
1040.326758
1040.150203
1040.326758
1040.856031
1041.736855
1042.967282
1044.544593
1046.465308
1048.725181
1051.319221
1054.241697
1057.486152
1061.045423
1064.911645
1069.076277
1073.530120
1078.263335
1077.028145
1072.246899
1067.747870
1063.540986
1059.635531
1056.040151
1052.762771
1049.810645
1047.190283
1044.907483
1042.967282
1041.373963
1040.131052
1039.241293
1038.706650
1038.528304
1038.706650
1039.241294
1040.131054
1041.373966
1042.967281
1044.907485
1047.190287
1049.810647
1052.762776
1056.040151
1059.635535
1063.540985
1067.747873
1072.246906
1077.028147
1076.064601
1071.245892
1066.711611
1062.471764
1058.535708
1054.912156
1051.609096
1048.633839
1045.992945
1043.692258
1041.736855
1040.131052
1038.878402
1037.981672
1037.442839
1037.263096
1037.442839
1037.981672
1038.878404
1040.131055
1041.736854
1043.692261
1045.992949
1048.633841
1051.609101
1054.912156
1058.535712
1062.471763
1066.711614
1071.245900
1076.064604
1075.374831
1070.529303
1065.969787
1061.706342
1057.748380
1054.104661
1050.783218
1047.791402
1045.135810
1042.822318
1040.856032
1039.241292
1037.981671
1037.079949
1036.538118
1036.357374
1036.538118
1037.079950
1037.981673
1039.241295
1040.856031
1042.822321
1045.135814
1047.791404
1050.783223
1054.104661
1057.748384
1061.706342
1065.969790
1070.529311
1075.374834
1074.960359
1070.098716
1065.524035
1061.246412
1057.275287
1053.619450
1050.286960
1047.285194
1044.620770
1042.299584
1040.326759
1038.706649
1037.442838
1036.538118
1035.994484
1035.813140
1035.994484
1036.538118
1037.442840
1038.706651
1040.326758
1042.299587
1044.620774
1047.285196
1050.286965
1053.619450
1057.275291
1061.246412
1065.524039
1070.098724
1074.960362
1074.822100
1069.955081
1065.375342
1061.092989
1057.117473
1053.457594
1050.121419
1047.116334
1044.448964
1042.125212
1040.150205
1038.528303
1037.263095
1036.357374
1035.813140
1035.631595
1035.813140
1036.357375
1037.263097
1038.528306
1040.150204
1042.125214
1044.448968
1047.116336
1050.121424
1053.457594
1057.117477
1061.092989
1065.375346
1069.955089
1074.822103
1074.960359
1070.098716
1065.524035
1061.246412
1057.275287
1053.619450
1050.286960
1047.285194
1044.620770
1042.299584
1040.326759
1038.706649
1037.442838
1036.538118
1035.994484
1035.813140
1035.994485
1036.538118
1037.442840
1038.706651
1040.326758
1042.299587
1044.620774
1047.285196
1050.286966
1053.619450
1057.275291
1061.246412
1065.524039
1070.098724
1074.960362
1075.374831
1070.529303
1065.969786
1061.706342
1057.748380
1054.104661
1050.783218
1047.791402
1045.135810
1042.822318
1040.856032
1039.241292
1037.981671
1037.079949
1036.538118
1036.357374
1036.538118
1037.079950
1037.981673
1039.241295
1040.856032
1042.822321
1045.135814
1047.791404
1050.783224
1054.104662
1057.748385
1061.706342
1065.969790
1070.529312
1075.374834
1076.064601
1071.245892
1066.711611
1062.471764
1058.535708
1054.912156
1051.609096
1048.633839
1045.992945
1043.692258
1041.736855
1040.131052
1038.878403
1037.981672
1037.442839
1037.263096
1037.442840
1037.981673
1038.878405
1040.131055
1041.736855
1043.692261
1045.992950
1048.633842
1051.609102
1054.912157
1058.535713
1062.471764
1066.711615
1071.245900
1076.064604
1077.028145
1072.246899
1067.747870
1063.540986
1059.635531
1056.040151
1052.762771
1049.810645
1047.190283
1044.907483
1042.967282
1041.373964
1040.131053
1039.241294
1038.706650
1038.528305
1038.706651
1039.241294
1040.131055
1041.373967
1042.967282
1044.907486
1047.190287
1049.810648
1052.762777
1056.040152
1059.635536
1063.540986
1067.747874
1072.246907
1077.028148
1078.263333
1073.530113
1069.076274
1064.911646
1061.045420
1057.486153
1054.241693
1051.319220
1048.725178
1046.465307
1044.544595
1042.967281
1041.736854
1040.856032
1040.326759
1040.150205
1040.326760
1040.856033
1041.736856
1042.967284
1044.544595
1046.465310
1048.725183
1051.319223
1054.241699
1057.486154
1061.045425
1064.911647
1069.076279
1073.530122
1078.263337
1079.767437
1075.092697
1070.693888
1066.580715
1062.762258
1059.246967
1056.042593
1053.156229
1050.594237
1048.362288
1046.465307
1044.907481
1043.692257
1042.822318
1042.299584
1042.125212
1042.299585
1042.822319
1043.692259
1044.907484
1046.465307
1048.362292
1050.594242
1053.156232
1056.042600
1059.246969
1062.762263
1066.580717
1070.693892
1075.092707
1079.767441
1081.537139
1076.931207
1072.597143
1068.544512
1064.782259
1061.318710
1058.161501
1055.317621
1052.793339
1050.594242
1048.725183
1047.190286
1045.992949
1045.135815
1044.620775
1044.448969
1044.620776
1045.135816
1045.992952
1047.190290
1048.725183
1050.594246
1052.793344
1055.317624
1058.161508
1061.318711
1064.782264
1068.544514
1072.597148
1076.931216
1081.537143
1083.568521
1079.041571
1074.781827
1070.798690
1067.100951
1063.696795
1060.593725
1057.798612
1055.317616
1053.156229
1051.319220
1049.810644
1048.633838
1047.791402
1047.285194
1047.116334
1047.285195
1047.791403
1048.633841
1049.810647
1051.319220
1053.156233
1055.317621
1057.798615
1060.593732
1063.696797
1067.100957
1070.798693
1074.781833
1079.041581
1083.568526
1085.857106
1081.419138
1077.243124
1073.338280
1069.713224
1066.375980
1063.333905
1060.593732
1058.161503
1056.042600
1054.241700
1052.762776
1051.609102
1050.783225
1050.286967
1050.121426
1050.286968
1050.783226
1051.609105
1052.762779
1054.241700
1056.042604
1058.161508
1060.593736
1063.333912
1066.375982
1069.713230
1073.338283
1077.243130
1081.419148
1085.857112
1088.397828
1084.058644
1079.975585
1076.157660
1072.613294
1069.350334
1066.375973
1063.696795
1061.318705
1059.246967
1057.486153
1056.040149
1054.912155
1054.104661
1053.619450
1053.457594
1053.619450
1054.104662
1054.912157
1056.040152
1057.486154
1059.246971
1061.318710
1063.696798
1066.375981
1069.350338
1072.613301
1076.157663
1079.975592
1084.058656
1088.397834
1091.185078
1086.954265
1082.973180
1079.250607
1075.794762
1072.613294
1069.713218
1067.100951
1064.782254
1062.762258
1061.045420
1059.635530
1058.535707
1057.748380
1057.275287
1057.117473
1057.275287
1057.748381
1058.535709
1059.635533
1061.045420
1062.762262
1064.782260
1067.100955
1069.713225
1072.613298
1075.794770
1079.250611
1082.973188
1086.954278
1091.185086
1094.212707
1090.099611
1086.229295
1082.610297
1079.250607
1076.157659
1073.338274
1070.798690
1068.544507
1066.580715
1064.911646
1063.540984
1062.471763
1061.706342
1061.246412
1061.092989
1061.246413
1061.706343
1062.471765
1063.540988
1064.911647
1066.580719
1068.544513
1070.798694
1073.338282
1076.157663
1079.250615
1082.610303
1086.229304
1090.099625
1094.212716
1097.474014
1093.487720
1089.736721
1086.229294
1082.973180
1079.975585
1077.243118
1074.781827
1072.597138
1070.693887
1069.076274
1067.747868
1066.711610
1065.969786
1065.524035
1065.375342
1065.524036
1065.969787
1066.711612
1067.747871
1069.076275
1070.693892
1072.597144
1074.781831
1077.243126
1079.975589
1082.973188
1086.229301
1089.736732
1093.487736
1097.474025
1100.961807
1097.111122
1093.487728
1090.099620
1086.954274
1084.058654
1081.419141
1079.041580
1076.931212
1075.092707
1073.530123
1072.246908
1071.245901
1070.529314
1070.098727
1069.955092
1070.098727
1070.529315
1071.245904
1072.246911
1073.530124
1075.092711
1076.931218
1079.041585
1081.419149
1084.058658
1086.954283
1090.099627
1093.487740
1097.111140
1100.961823
1104.668365
1100.961797
1097.474014
1094.212707
1091.185078
1088.397828
1085.857101
1083.568522
1081.537135
1079.767438
1078.263334
1077.028144
1076.064601
1075.374832
1074.960360
1074.822101
1074.960360
1075.374833
1076.064603
1077.028147
1078.263335
1079.767442
1081.537141
1083.568526
1085.857109
1088.397832
1091.185087
1094.212714
1097.474026
1100.961818
1104.668388
