# vtk DataFile Version 2.0
Unstructured Grid Example
ASCII
DATASET UNSTRUCTURED_GRID

POINTS 961 float
0.1 0.005 0
0.0966667 0.005 0
0.0933333 0.005 0
0.09 0.005 0
0.0866667 0.005 0
0.0833333 0.005 0
0.08 0.005 0
0.0766667 0.005 0
0.0733333 0.005 0
0.07 0.005 0
0.0666667 0.005 0
0.0633333 0.005 0
0.06 0.005 0
0.0566667 0.005 0
0.0533333 0.005 0
0.05 0.005 0
0.0466667 0.005 0
0.0433333 0.005 0
0.04 0.005 0
0.0366667 0.005 0
0.0333333 0.005 0
0.03 0.005 0
0.0266667 0.005 0
0.0233333 0.005 0
0.02 0.005 0
0.0166667 0.005 0
0.0133333 0.005 0
0.01 0.005 0
0.00666667 0.005 0
0.00333333 0.005 0
0 0.005 0
0.1 0.00166667 0
0.0966667 0.00166667 0
0.0933333 0.00166667 0
0.09 0.00166667 0
0.0866667 0.00166667 0
0.0833333 0.00166667 0
0.08 0.00166667 0
0.0766667 0.00166667 0
0.0733333 0.00166667 0
0.07 0.00166667 0
0.0666667 0.00166667 0
0.0633333 0.00166667 0
0.06 0.00166667 0
0.0566667 0.00166667 0
0.0533333 0.00166667 0
0.05 0.00166667 0
0.0466667 0.00166667 0
0.0433333 0.00166667 0
0.04 0.00166667 0
0.0366667 0.00166667 0
0.0333333 0.00166667 0
0.03 0.00166667 0
0.0266667 0.00166667 0
0.0233333 0.00166667 0
0.02 0.00166667 0
0.0166667 0.00166667 0
0.0133333 0.00166667 0
0.01 0.00166667 0
0.00666667 0.00166667 0
0.00333333 0.00166667 0
0 0.00166667 0
0.1 -0.00166667 0
0.0966667 -0.00166667 0
0.0933333 -0.00166667 0
0.09 -0.00166667 0
0.0866667 -0.00166667 0
0.0833333 -0.00166667 0
0.08 -0.00166667 0
0.0766667 -0.00166667 0
0.0733333 -0.00166667 0
0.07 -0.00166667 0
0.0666667 -0.00166667 0
0.0633333 -0.00166667 0
0.06 -0.00166667 0
0.0566667 -0.00166667 0
0.0533333 -0.00166667 0
0.05 -0.00166667 0
0.0466667 -0.00166667 0
0.0433333 -0.00166667 0
0.04 -0.00166667 0
0.0366667 -0.00166667 0
0.0333333 -0.00166667 0
0.03 -0.00166667 0
0.0266667 -0.00166667 0
0.0233333 -0.00166667 0
0.02 -0.00166667 0
0.0166667 -0.00166667 0
0.0133333 -0.00166667 0
0.01 -0.00166667 0
0.00666667 -0.00166667 0
0.00333333 -0.00166667 0
0 -0.00166667 0
0.1 -0.005 0
0.0966667 -0.005 0
0.0933333 -0.005 0
0.09 -0.005 0
0.0866667 -0.005 0
0.0833333 -0.005 0
0.08 -0.005 0
0.0766667 -0.005 0
0.0733333 -0.005 0
0.07 -0.005 0
0.0666667 -0.005 0
0.0633333 -0.005 0
0.06 -0.005 0
0.0566667 -0.005 0
0.0533333 -0.005 0
0.05 -0.005 0
0.0466667 -0.005 0
0.0433333 -0.005 0
0.04 -0.005 0
0.0366667 -0.005 0
0.0333333 -0.005 0
0.03 -0.005 0
0.0266667 -0.005 0
0.0233333 -0.005 0
0.02 -0.005 0
0.0166667 -0.005 0
0.0133333 -0.005 0
0.01 -0.005 0
0.00666667 -0.005 0
0.00333333 -0.005 0
0 -0.005 0
0.1 -0.00833333 0
0.0966667 -0.00833333 0
0.0933333 -0.00833333 0
0.09 -0.00833333 0
0.0866667 -0.00833333 0
0.0833333 -0.00833333 0
0.08 -0.00833333 0
0.0766667 -0.00833333 0
0.0733333 -0.00833333 0
0.07 -0.00833333 0
0.0666667 -0.00833333 0
0.0633333 -0.00833333 0
0.06 -0.00833333 0
0.0566667 -0.00833333 0
0.0533333 -0.00833333 0
0.05 -0.00833333 0
0.0466667 -0.00833333 0
0.0433333 -0.00833333 0
0.04 -0.00833333 0
0.0366667 -0.00833333 0
0.0333333 -0.00833333 0
0.03 -0.00833333 0
0.0266667 -0.00833333 0
0.0233333 -0.00833333 0
0.02 -0.00833333 0
0.0166667 -0.00833333 0
0.0133333 -0.00833333 0
0.01 -0.00833333 0
0.00666667 -0.00833333 0
0.00333333 -0.00833333 0
0 -0.00833333 0
0.1 -0.0116667 0
0.0966667 -0.0116667 0
0.0933333 -0.0116667 0
0.09 -0.0116667 0
0.0866667 -0.0116667 0
0.0833333 -0.0116667 0
0.08 -0.0116667 0
0.0766667 -0.0116667 0
0.0733333 -0.0116667 0
0.07 -0.0116667 0
0.0666667 -0.0116667 0
0.0633333 -0.0116667 0
0.06 -0.0116667 0
0.0566667 -0.0116667 0
0.0533333 -0.0116667 0
0.05 -0.0116667 0
0.0466667 -0.0116667 0
0.0433333 -0.0116667 0
0.04 -0.0116667 0
0.0366667 -0.0116667 0
0.0333333 -0.0116667 0
0.03 -0.0116667 0
0.0266667 -0.0116667 0
0.0233333 -0.0116667 0
0.02 -0.0116667 0
0.0166667 -0.0116667 0
0.0133333 -0.0116667 0
0.01 -0.0116667 0
0.00666667 -0.0116667 0
0.00333333 -0.0116667 0
0 -0.0116667 0
0.1 -0.015 0
0.0966667 -0.015 0
0.0933333 -0.015 0
0.09 -0.015 0
0.0866667 -0.015 0
0.0833333 -0.015 0
0.08 -0.015 0
0.0766667 -0.015 0
0.0733333 -0.015 0
0.07 -0.015 0
0.0666667 -0.015 0
0.0633333 -0.015 0
0.06 -0.015 0
0.0566667 -0.015 0
0.0533333 -0.015 0
0.05 -0.015 0
0.0466667 -0.015 0
0.0433333 -0.015 0
0.04 -0.015 0
0.0366667 -0.015 0
0.0333333 -0.015 0
0.03 -0.015 0
0.0266667 -0.015 0
0.0233333 -0.015 0
0.02 -0.015 0
0.0166667 -0.015 0
0.0133333 -0.015 0
0.01 -0.015 0
0.00666667 -0.015 0
0.00333333 -0.015 0
0 -0.015 0
0.1 -0.0183333 0
0.0966667 -0.0183333 0
0.0933333 -0.0183333 0
0.09 -0.0183333 0
0.0866667 -0.0183333 0
0.0833333 -0.0183333 0
0.08 -0.0183333 0
0.0766667 -0.0183333 0
0.0733333 -0.0183333 0
0.07 -0.0183333 0
0.0666667 -0.0183333 0
0.0633333 -0.0183333 0
0.06 -0.0183333 0
0.0566667 -0.0183333 0
0.0533333 -0.0183333 0
0.05 -0.0183333 0
0.0466667 -0.0183333 0
0.0433333 -0.0183333 0
0.04 -0.0183333 0
0.0366667 -0.0183333 0
0.0333333 -0.0183333 0
0.03 -0.0183333 0
0.0266667 -0.0183333 0
0.0233333 -0.0183333 0
0.02 -0.0183333 0
0.0166667 -0.0183333 0
0.0133333 -0.0183333 0
0.01 -0.0183333 0
0.00666667 -0.0183333 0
0.00333333 -0.0183333 0
0 -0.0183333 0
0.1 -0.0216667 0
0.0966667 -0.0216667 0
0.0933333 -0.0216667 0
0.09 -0.0216667 0
0.0866667 -0.0216667 0
0.0833333 -0.0216667 0
0.08 -0.0216667 0
0.0766667 -0.0216667 0
0.0733333 -0.0216667 0
0.07 -0.0216667 0
0.0666667 -0.0216667 0
0.0633333 -0.0216667 0
0.06 -0.0216667 0
0.0566667 -0.0216667 0
0.0533333 -0.0216667 0
0.05 -0.0216667 0
0.0466667 -0.0216667 0
0.0433333 -0.0216667 0
0.04 -0.0216667 0
0.0366667 -0.0216667 0
0.0333333 -0.0216667 0
0.03 -0.0216667 0
0.0266667 -0.0216667 0
0.0233333 -0.0216667 0
0.02 -0.0216667 0
0.0166667 -0.0216667 0
0.0133333 -0.0216667 0
0.01 -0.0216667 0
0.00666667 -0.0216667 0
0.00333333 -0.0216667 0
0 -0.0216667 0
0.1 -0.025 0
0.0966667 -0.025 0
0.0933333 -0.025 0
0.09 -0.025 0
0.0866667 -0.025 0
0.0833333 -0.025 0
0.08 -0.025 0
0.0766667 -0.025 0
0.0733333 -0.025 0
0.07 -0.025 0
0.0666667 -0.025 0
0.0633333 -0.025 0
0.06 -0.025 0
0.0566667 -0.025 0
0.0533333 -0.025 0
0.05 -0.025 0
0.0466667 -0.025 0
0.0433333 -0.025 0
0.04 -0.025 0
0.0366667 -0.025 0
0.0333333 -0.025 0
0.03 -0.025 0
0.0266667 -0.025 0
0.0233333 -0.025 0
0.02 -0.025 0
0.0166667 -0.025 0
0.0133333 -0.025 0
0.01 -0.025 0
0.00666667 -0.025 0
0.00333333 -0.025 0
0 -0.025 0
0.1 -0.0283333 0
0.0966667 -0.0283333 0
0.0933333 -0.0283333 0
0.09 -0.0283333 0
0.0866667 -0.0283333 0
0.0833333 -0.0283333 0
0.08 -0.0283333 0
0.0766667 -0.0283333 0
0.0733333 -0.0283333 0
0.07 -0.0283333 0
0.0666667 -0.0283333 0
0.0633333 -0.0283333 0
0.06 -0.0283333 0
0.0566667 -0.0283333 0
0.0533333 -0.0283333 0
0.05 -0.0283333 0
0.0466667 -0.0283333 0
0.0433333 -0.0283333 0
0.04 -0.0283333 0
0.0366667 -0.0283333 0
0.0333333 -0.0283333 0
0.03 -0.0283333 0
0.0266667 -0.0283333 0
0.0233333 -0.0283333 0
0.02 -0.0283333 0
0.0166667 -0.0283333 0
0.0133333 -0.0283333 0
0.01 -0.0283333 0
0.00666667 -0.0283333 0
0.00333333 -0.0283333 0
0 -0.0283333 0
0.1 -0.0316667 0
0.0966667 -0.0316667 0
0.0933333 -0.0316667 0
0.09 -0.0316667 0
0.0866667 -0.0316667 0
0.0833333 -0.0316667 0
0.08 -0.0316667 0
0.0766667 -0.0316667 0
0.0733333 -0.0316667 0
0.07 -0.0316667 0
0.0666667 -0.0316667 0
0.0633333 -0.0316667 0
0.06 -0.0316667 0
0.0566667 -0.0316667 0
0.0533333 -0.0316667 0
0.05 -0.0316667 0
0.0466667 -0.0316667 0
0.0433333 -0.0316667 0
0.04 -0.0316667 0
0.0366667 -0.0316667 0
0.0333333 -0.0316667 0
0.03 -0.0316667 0
0.0266667 -0.0316667 0
0.0233333 -0.0316667 0
0.02 -0.0316667 0
0.0166667 -0.0316667 0
0.0133333 -0.0316667 0
0.01 -0.0316667 0
0.00666667 -0.0316667 0
0.00333333 -0.0316667 0
0 -0.0316667 0
0.1 -0.035 0
0.0966667 -0.035 0
0.0933333 -0.035 0
0.09 -0.035 0
0.0866667 -0.035 0
0.0833333 -0.035 0
0.08 -0.035 0
0.0766667 -0.035 0
0.0733333 -0.035 0
0.07 -0.035 0
0.0666667 -0.035 0
0.0633333 -0.035 0
0.06 -0.035 0
0.0566667 -0.035 0
0.0533333 -0.035 0
0.05 -0.035 0
0.0466667 -0.035 0
0.0433333 -0.035 0
0.04 -0.035 0
0.0366667 -0.035 0
0.0333333 -0.035 0
0.03 -0.035 0
0.0266667 -0.035 0
0.0233333 -0.035 0
0.02 -0.035 0
0.0166667 -0.035 0
0.0133333 -0.035 0
0.01 -0.035 0
0.00666667 -0.035 0
0.00333333 -0.035 0
0 -0.035 0
0.1 -0.0383333 0
0.0966667 -0.0383333 0
0.0933333 -0.0383333 0
0.09 -0.0383333 0
0.0866667 -0.0383333 0
0.0833333 -0.0383333 0
0.08 -0.0383333 0
0.0766667 -0.0383333 0
0.0733333 -0.0383333 0
0.07 -0.0383333 0
0.0666667 -0.0383333 0
0.0633333 -0.0383333 0
0.06 -0.0383333 0
0.0566667 -0.0383333 0
0.0533333 -0.0383333 0
0.05 -0.0383333 0
0.0466667 -0.0383333 0
0.0433333 -0.0383333 0
0.04 -0.0383333 0
0.0366667 -0.0383333 0
0.0333333 -0.0383333 0
0.03 -0.0383333 0
0.0266667 -0.0383333 0
0.0233333 -0.0383333 0
0.02 -0.0383333 0
0.0166667 -0.0383333 0
0.0133333 -0.0383333 0
0.01 -0.0383333 0
0.00666667 -0.0383333 0
0.00333333 -0.0383333 0
0 -0.0383333 0
0.1 -0.0416667 0
0.0966667 -0.0416667 0
0.0933333 -0.0416667 0
0.09 -0.0416667 0
0.0866667 -0.0416667 0
0.0833333 -0.0416667 0
0.08 -0.0416667 0
0.0766667 -0.0416667 0
0.0733333 -0.0416667 0
0.07 -0.0416667 0
0.0666667 -0.0416667 0
0.0633333 -0.0416667 0
0.06 -0.0416667 0
0.0566667 -0.0416667 0
0.0533333 -0.0416667 0
0.05 -0.0416667 0
0.0466667 -0.0416667 0
0.0433333 -0.0416667 0
0.04 -0.0416667 0
0.0366667 -0.0416667 0
0.0333333 -0.0416667 0
0.03 -0.0416667 0
0.0266667 -0.0416667 0
0.0233333 -0.0416667 0
0.02 -0.0416667 0
0.0166667 -0.0416667 0
0.0133333 -0.0416667 0
0.01 -0.0416667 0
0.00666667 -0.0416667 0
0.00333333 -0.0416667 0
0 -0.0416667 0
0.1 -0.045 0
0.0966667 -0.045 0
0.0933333 -0.045 0
0.09 -0.045 0
0.0866667 -0.045 0
0.0833333 -0.045 0
0.08 -0.045 0
0.0766667 -0.045 0
0.0733333 -0.045 0
0.07 -0.045 0
0.0666667 -0.045 0
0.0633333 -0.045 0
0.06 -0.045 0
0.0566667 -0.045 0
0.0533333 -0.045 0
0.05 -0.045 0
0.0466667 -0.045 0
0.0433333 -0.045 0
0.04 -0.045 0
0.0366667 -0.045 0
0.0333333 -0.045 0
0.03 -0.045 0
0.0266667 -0.045 0
0.0233333 -0.045 0
0.02 -0.045 0
0.0166667 -0.045 0
0.0133333 -0.045 0
0.01 -0.045 0
0.00666667 -0.045 0
0.00333333 -0.045 0
0 -0.045 0
0.1 -0.0483333 0
0.0966667 -0.0483333 0
0.0933333 -0.0483333 0
0.09 -0.0483333 0
0.0866667 -0.0483333 0
[...]
POINT_DATA 961
SCALARS Temp float 1
LOOKUP_TABLE default
1073.735094
1068.825815
1064.206310
1059.886772
1055.876735
1052.185075
1048.819931
1045.788752
1043.098219
1040.754289
1038.762132
1037.126146
1035.849952
1034.936366
1034.387406
1034.204284
1034.387406
1034.936367
1035.849954
1037.126149
1038.762131
1040.754291
1043.098224
1045.788754
1048.819937
1052.185076
1055.876741
1059.886774
1064.206317
1068.825829
1073.735106
1068.825822
1063.725664
1058.926547
1054.439062
1050.273112
1046.437917
1042.941934
1039.792900
1036.997757
1034.562693
1032.493079
1030.793485
1029.467671
1028.518565
1027.948260
1027.758019
1027.948261
1028.518566
1029.467674
1030.793488
1032.493079
1034.562696
1036.997762
1039.792902
1042.941940
1046.437918
1050.273118
1054.439064
1058.926554
1063.725677
1068.825830
1064.206312
1058.926543
1053.958417
1049.312897
1045.000235
1041.029978
1037.410878
1034.150945
1031.257367
1028.736548
1026.594050
1024.834602
1023.462097
1022.479567
1021.889178
1021.692237
1021.889178
1022.479567
1023.462100
1024.834605
1026.594049
1028.736551
1031.257372
1034.150948
1037.410884
1041.029979
1045.000241
1049.312898
1053.958423
1058.926554
1064.206318
1059.886769
1054.439053
1049.312893
1044.519600
1040.069755
1035.973205
1032.238982
1028.875353
1025.889731
1023.288726
1021.078075
1019.262660
1017.846497
1016.832712
1016.223543
1016.020337
1016.223543
1016.832712
1017.846499
1019.262663
1021.078075
1023.288729
1025.889736
1028.875355
1032.238989
1035.973206
1040.069760
1044.519601
1049.312898
1054.439064
1059.886774
1055.876737
1050.273107
1045.000236
1040.069760
1035.492559
1031.278767
1027.437671
1023.977774
1020.906704
1018.231258
1015.957339
1014.089967
1012.633273
1011.590473
1010.963870
1010.754849
1010.963871
1011.590474
1012.633275
1014.089970
1015.957338
1018.231261
1020.906709
1023.977776
1027.437677
1031.278767
1035.492565
1040.069760
1045.000241
1050.273117
1055.876741
1052.185074
1046.437909
1041.029975
1035.973207
1031.278763
1026.957035
1023.017551
1019.469031
1016.319296
1013.575320
1011.243155
1009.327951
1007.833944
1006.764434
1006.121780
1005.907405
1006.121781
1006.764434
1007.833946
1009.327954
1011.243154
1013.575323
1016.319301
1019.469033
1023.017558
1026.957036
1031.278768
1035.973207
1041.029980
1046.437919
1052.185078
1048.819934
1042.941930
1037.410880
1032.238989
1027.437672
1023.017557
1018.988387
1015.359081
1012.137639
1009.331194
1006.945936
1004.987130
1003.459111
1002.365252
1001.707968
1001.488712
1001.707968
1002.365253
1003.459113
1004.987133
1006.945934
1009.331197
1012.137645
1015.359083
1018.988393
1023.017557
1027.437678
1032.238989
1037.410884
1042.941940
1048.819938
1045.788752
1039.792893
1034.150944
1028.875357
1023.977772
1019.469033
1015.359077
1011.657003
1008.370972
1005.508256
1003.075173
1001.077093
999.518437
998.402646
997.732184
997.508531
997.732184
998.402647
999.518439
1001.077096
1003.075172
1005.508259
1008.370977
1011.657005
1015.359084
1019.469033
1023.977778
1028.875356
1034.150949
1039.792903
1045.788755
1043.098222
1036.997753
1031.257369
1025.889738
1020.906705
1016.319301
1012.137639
1008.370975
1005.027612
1002.114951
999.639417
997.606476
996.020626
994.885369
994.203208
993.975654
994.203209
994.885369
996.020629
997.606480
999.639416
1002.114954
1005.027617
1008.370977
1012.137646
1016.319301
1020.906710
1025.889737
1031.257373
1036.997763
1043.098225
1040.754289
1034.562686
1028.736547
1023.288729
1018.231256
1013.575322
1009.331190
1005.508256
1002.114947
999.158774
996.646259
994.582948
992.973407
991.821190
991.128839
990.897886
991.128839
991.821191
992.973410
994.582951
996.646258
999.158777
1002.114952
1005.508258
1009.331197
1013.575321
1018.231261
1023.288729
1028.736551
1034.562696
1040.754292
1038.762130
1032.493070
1026.594047
1021.078077
1015.957335
1011.243155
1006.945929
1003.075170
999.639411
996.646256
994.102310
992.013187
990.383511
989.216880
988.515867
988.282025
988.515868
989.216880
990.383513
992.013191
994.102309
996.646259
999.639416
1003.075172
1006.945936
1011.243154
1015.957340
1021.078076
1026.594051
1032.493080
1038.762133
1037.126147
1030.793479
1024.834602
1019.262665
1014.089966
1009.327953
1004.987127
1001.077093
997.606474
994.582949
992.013191
989.902871
988.256660
987.078191
986.370066
986.133851
986.370066
987.078192
988.256662
989.902874
992.013190
994.582952
997.606479
1001.077095
1004.987133
1009.327953
1014.089970
1019.262664
1024.834606
1030.793489
1037.126150
1035.849952
1029.467665
1023.462097
1017.846501
1012.633271
1007.833946
1003.459107
999.518437
996.020623
992.973408
990.383514
988.256659
986.597549
985.409846
984.696173
984.458107
984.696173
985.409847
986.597551
988.256663
990.383513
992.973411
996.020629
999.518439
1003.459114
1007.833946
1012.633276
1017.846500
1023.462101
1029.467675
1035.849955
1034.936365
1028.518557
1022.479565
1016.832715
1011.590471
1006.764435
1002.365247
998.402645
994.885364
991.821189
989.216881
987.078189
985.409845
984.215532
983.497887
983.258496
983.497887
984.215533
985.409847
987.078193
989.216880
991.821192
994.885369
998.402647
1002.365254
1006.764435
1011.590476
1016.832714
1022.479569
1028.518567
1034.936368
1034.387405
1027.948252
1021.889176
1016.223546
1010.963868
1006.121782
1001.707963
997.732183
994.203204
991.128838
988.515869
986.370064
984.696172
983.497887
982.777855
982.537667
982.777855
983.497888
984.696174
986.370068
988.515868
991.128842
994.203209
997.732185
1001.707970
1006.121782
1010.963873
1016.223546
1021.889180
1027.948263
1034.387408
1034.204283
1027.758011
1021.692235
1016.020341
1010.754846
1005.907406
1001.488707
997.508531
993.975650
990.897885
988.282027
986.133849
984.458105
983.258496
982.537668
982.297215
982.537668
983.258496
984.458108
986.133853
988.282026
990.897888
993.975655
997.508533
1001.488715
1005.907406
1010.754851
1016.020340
1021.692239
1027.758021
1034.204287
1034.387405
1027.948252
1021.889176
1016.223546
1010.963867
1006.121782
1001.707963
997.732183
994.203204
991.128838
988.515869
986.370064
984.696172
983.497887
982.777855
982.537668
982.777855
983.497888
984.696174
986.370068
988.515868
991.128842
994.203210
997.732185
1001.707971
1006.121782
1010.963873
1016.223546
1021.889180
1027.948263
1034.387408
1034.936365
1028.518557
1022.479564
1016.832715
1011.590471
1006.764435
1002.365247
998.402645
994.885364
991.821189
989.216881
987.078189
985.409845
984.215532
983.497887
983.258496
983.497887
984.215533
985.409848
987.078193
989.216881
991.821193
994.885370
998.402648
1002.365255
1006.764435
1011.590476
1016.832715
1022.479569
1028.518568
1034.936369
1035.849952
1029.467664
1023.462096
1017.846501
1012.633271
1007.833946
1003.459107
999.518437
996.020623
992.973408
990.383514
988.256659
986.597549
985.409847
984.696173
984.458107
984.696174
985.409847
986.597552
988.256663
990.383514
992.973412
996.020629
999.518440
1003.459115
1007.833947
1012.633277
1017.846501
1023.462101
1029.467675
1035.849956
1037.126147
1030.793479
1024.834601
1019.262665
1014.089965
1009.327953
1004.987127
1001.077094
997.606474
994.582949
992.013191
989.902871
988.256660
987.078191
986.370067
986.133851
986.370067
987.078192
988.256663
989.902875
992.013191
994.582953
997.606480
1001.077097
1004.987135
1009.327954
1014.089972
1019.262665
1024.834607
1030.793490
1037.126151
1038.762131
1032.493071
1026.594047
1021.078078
1015.957336
1011.243156
1006.945930
1003.075172
999.639412
996.646258
994.102312
992.013189
990.383513
989.216882
988.515869
988.282027
988.515870
989.216882
990.383516
992.013193
994.102311
996.646262
999.639419
1003.075175
1006.945939
1011.243157
1015.957343
1021.078079
1026.594053
1032.493083
1038.762135
1040.754287
1034.562684
1028.736545
1023.288728
1018.231254
1013.575320
1009.331189
1005.508255
1002.114946
999.158773
996.646258
994.582947
992.973406
991.821189
991.128838
990.897885
991.128839
991.821190
992.973409
994.582951
996.646258
999.158777
1002.114952
1005.508258
1009.331197
1013.575322
1018.231262
1023.288729
1028.736552
1034.562696
1040.754292
1043.098223
1036.997754
1031.257370
1025.889739
1020.906707
1016.319303
1012.137641
1008.370977
1005.027614
1002.114953
999.639419
997.606479
996.020629
994.885371
994.203211
993.975657
994.203212
994.885372
996.020632
997.606483
999.639420
1002.114957
1005.027621
1008.370980
1012.137650
1016.319305
1020.906714
1025.889741
1031.257377
1036.997767
1043.098229
1045.788750
1039.792891
1034.150942
1028.875354
1023.977770
1019.469031
1015.359075
1011.657001
1008.370970
1005.508255
1003.075172
1001.077091
999.518435
998.402645
997.732182
997.508530
997.732183
998.402646
999.518439
1001.077096
1003.075172
1005.508259
1008.370977
1011.657005
1015.359084
1019.469033
1023.977778
1028.875357
1034.150950
1039.792904
1045.788756
1048.819936
1042.941932
1037.410882
1032.238992
1027.437675
1023.017559
1018.988390
1015.359084
1012.137643
1009.331198
1006.945939
1004.987134
1003.459115
1002.365257
1001.707973
1001.488717
1001.707973
1002.365258
1003.459118
1004.987138
1006.945940
1009.331203
1012.137650
1015.359089
1018.988399
1023.017563
1027.437684
1032.238995
1037.410890
1042.941946
1048.819943
1052.185072
1046.437908
1041.029974
1035.973206
1031.278762
1026.957035
1023.017551
1019.469030
1016.319296
1013.575320
1011.243156
1009.327951
1007.833945
1006.764435
1006.121782
1005.907406
1006.121782
1006.764436
1007.833948
1009.327956
1011.243156
1013.575325
1016.319304
1019.469035
1023.017561
1026.957039
1031.278772
1035.973211
1041.029984
1046.437923
1052.185081
1055.876732
1050.273102
1045.000231
1040.069755
1035.492555
1031.278762
1027.437667
1023.977770
1020.906700
1018.231254
1015.957336
1014.089963
1012.633269
1011.590470
1010.963867
1010.754846
1010.963868
1011.590472
1012.633273
1014.089968
1015.957336
1018.231260
1020.906708
1023.977775
1027.437677
1031.278767
1035.492565
1040.069761
1045.000242
1050.273118
1055.876742
1059.886768
1054.439052
1049.312892
1044.519600
1040.069755
1035.973206
1032.238983
1028.875354
1025.889733
1023.288728
1021.078078
1019.262663
1017.846499
1016.832715
1016.223546
1016.020341
1016.223547
1016.832716
1017.846503
1019.262667
1021.078079
1023.288733
1025.889740
1028.875360
1032.238994
1035.973211
1040.069766
1044.519607
1049.312904
1054.439070
1059.886781
1064.206306
1058.926537
1053.958411
1049.312892
1045.000231
1041.029974
1037.410874
1034.150942
1031.257364
1028.736545
1026.594047
1024.834599
1023.462095
1022.479564
1021.889176
1021.692235
1021.889176
1022.479565
1023.462098
1024.834604
1026.594048
1028.736550
1031.257372
1034.150948
1037.410885
1041.029980
1045.000242
1049.312900
1053.958425
1058.926558
1064.206321
1068.825821
1063.725663
1058.926548
1054.439064
1050.273114
1046.437920
1042.941937
1039.792903
1036.997761
1034.562697
1032.493084
1030.793491
1029.467677
1028.518571
1027.948266
1027.758025
1027.948267
1028.518572
1029.467680
1030.793495
1032.493085
1034.562703
1036.997769
1039.792909
1042.941948
1046.437926
1050.273126
1054.439073
1058.926564
1063.725687
1068.825842
1073.735085
1068.825808
1064.206306
1059.886769
1055.876732
1052.185073
1048.819929
1045.788750
1043.098218
1040.754288
1038.762131
1037.126146
1035.849951
1034.936366
1034.387406
1034.204284
1034.387406
1034.936367
1035.849954
1037.126150
1038.762132
1040.754293
1043.098225
1045.788756
1048.819939
1052.185079
1055.876744
1059.886778
1064.206322
1068.825836
1073.735116
