# vtk DataFile Version 2.0
Unstructured Grid Example
ASCII
DATASET UNSTRUCTURED_GRID

POINTS 961 float
0.1 0.005 0
0.0966667 0.005 0
0.0933333 0.005 0
0.09 0.005 0
0.0866667 0.005 0
0.0833333 0.005 0
0.08 0.005 0
0.0766667 0.005 0
0.0733333 0.005 0
0.07 0.005 0
0.0666667 0.005 0
0.0633333 0.005 0
0.06 0.005 0
0.0566667 0.005 0
0.0533333 0.005 0
0.05 0.005 0
0.0466667 0.005 0
0.0433333 0.005 0
0.04 0.005 0
0.0366667 0.005 0
0.0333333 0.005 0
0.03 0.005 0
0.0266667 0.005 0
0.0233333 0.005 0
0.02 0.005 0
0.0166667 0.005 0
0.0133333 0.005 0
0.01 0.005 0
0.00666667 0.005 0
0.00333333 0.005 0
0 0.005 0
0.1 0.00166667 0
0.0966667 0.00166667 0
0.0933333 0.00166667 0
0.09 0.00166667 0
0.0866667 0.00166667 0
0.0833333 0.00166667 0
0.08 0.00166667 0
0.0766667 0.00166667 0
0.0733333 0.00166667 0
0.07 0.00166667 0
0.0666667 0.00166667 0
0.0633333 0.00166667 0
0.06 0.00166667 0
0.0566667 0.00166667 0
0.0533333 0.00166667 0
0.05 0.00166667 0
0.0466667 0.00166667 0
0.0433333 0.00166667 0
0.04 0.00166667 0
0.0366667 0.00166667 0
0.0333333 0.00166667 0
0.03 0.00166667 0
0.0266667 0.00166667 0
0.0233333 0.00166667 0
0.02 0.00166667 0
0.0166667 0.00166667 0
0.0133333 0.00166667 0
0.01 0.00166667 0
0.00666667 0.00166667 0
0.00333333 0.00166667 0
0 0.00166667 0
0.1 -0.00166667 0
0.0966667 -0.00166667 0
0.0933333 -0.00166667 0
0.09 -0.00166667 0
0.0866667 -0.00166667 0
0.0833333 -0.00166667 0
0.08 -0.00166667 0
0.0766667 -0.00166667 0
0.0733333 -0.00166667 0
0.07 -0.00166667 0
0.0666667 -0.00166667 0
0.0633333 -0.00166667 0
0.06 -0.00166667 0
0.0566667 -0.00166667 0
0.0533333 -0.00166667 0
0.05 -0.00166667 0
0.0466667 -0.00166667 0
0.0433333 -0.00166667 0
0.04 -0.00166667 0
0.0366667 -0.00166667 0
0.0333333 -0.00166667 0
0.03 -0.00166667 0
0.0266667 -0.00166667 0
0.0233333 -0.00166667 0
0.02 -0.00166667 0
0.0166667 -0.00166667 0
0.0133333 -0.00166667 0
0.01 -0.00166667 0
0.00666667 -0.00166667 0
0.00333333 -0.00166667 0
0 -0.00166667 0
0.1 -0.005 0
0.0966667 -0.005 0
0.0933333 -0.005 0
0.09 -0.005 0
0.0866667 -0.005 0
0.0833333 -0.005 0
0.08 -0.005 0
0.0766667 -0.005 0
0.0733333 -0.005 0
0.07 -0.005 0
0.0666667 -0.005 0
0.0633333 -0.005 0
0.06 -0.005 0
0.0566667 -0.005 0
0.0533333 -0.005 0
0.05 -0.005 0
0.0466667 -0.005 0
0.0433333 -0.005 0
0.04 -0.005 0
0.0366667 -0.005 0
0.0333333 -0.005 0
0.03 -0.005 0
0.0266667 -0.005 0
0.0233333 -0.005 0
0.02 -0.005 0
0.0166667 -0.005 0
0.0133333 -0.005 0
0.01 -0.005 0
0.00666667 -0.005 0
0.00333333 -0.005 0
0 -0.005 0
0.1 -0.00833333 0
0.0966667 -0.00833333 0
0.0933333 -0.00833333 0
0.09 -0.00833333 0
0.0866667 -0.00833333 0
0.0833333 -0.00833333 0
0.08 -0.00833333 0
0.0766667 -0.00833333 0
0.0733333 -0.00833333 0
0.07 -0.00833333 0
0.0666667 -0.00833333 0
0.0633333 -0.00833333 0
0.06 -0.00833333 0
0.0566667 -0.00833333 0
0.0533333 -0.00833333 0
0.05 -0.00833333 0
0.0466667 -0.00833333 0
0.0433333 -0.00833333 0
0.04 -0.00833333 0
0.0366667 -0.00833333 0
0.0333333 -0.00833333 0
0.03 -0.00833333 0
0.0266667 -0.00833333 0
0.0233333 -0.00833333 0
0.02 -0.00833333 0
0.0166667 -0.00833333 0
0.0133333 -0.00833333 0
0.01 -0.00833333 0
0.00666667 -0.00833333 0
0.00333333 -0.00833333 0
0 -0.00833333 0
0.1 -0.0116667 0
0.0966667 -0.0116667 0
0.0933333 -0.0116667 0
0.09 -0.0116667 0
0.0866667 -0.0116667 0
0.0833333 -0.0116667 0
0.08 -0.0116667 0
0.0766667 -0.0116667 0
0.0733333 -0.0116667 0
0.07 -0.0116667 0
0.0666667 -0.0116667 0
0.0633333 -0.0116667 0
0.06 -0.0116667 0
0.0566667 -0.0116667 0
0.0533333 -0.0116667 0
0.05 -0.0116667 0
0.0466667 -0.0116667 0
0.0433333 -0.0116667 0
0.04 -0.0116667 0
0.0366667 -0.0116667 0
0.0333333 -0.0116667 0
0.03 -0.0116667 0
0.0266667 -0.0116667 0
0.0233333 -0.0116667 0
0.02 -0.0116667 0
0.0166667 -0.0116667 0
0.0133333 -0.0116667 0
0.01 -0.0116667 0
0.00666667 -0.0116667 0
0.00333333 -0.0116667 0
0 -0.0116667 0
0.1 -0.015 0
0.0966667 -0.015 0
0.0933333 -0.015 0
0.09 -0.015 0
0.0866667 -0.015 0
0.0833333 -0.015 0
0.08 -0.015 0
0.0766667 -0.015 0
0.0733333 -0.015 0
0.07 -0.015 0
0.0666667 -0.015 0
0.0633333 -0.015 0
0.06 -0.015 0
0.0566667 -0.015 0
0.0533333 -0.015 0
0.05 -0.015 0
0.0466667 -0.015 0
0.0433333 -0.015 0
0.04 -0.015 0
0.0366667 -0.015 0
0.0333333 -0.015 0
0.03 -0.015 0
0.0266667 -0.015 0
0.0233333 -0.015 0
0.02 -0.015 0
0.0166667 -0.015 0
0.0133333 -0.015 0
0.01 -0.015 0
0.00666667 -0.015 0
0.00333333 -0.015 0
0 -0.015 0
0.1 -0.0183333 0
0.0966667 -0.0183333 0
0.0933333 -0.0183333 0
0.09 -0.0183333 0
0.0866667 -0.0183333 0
0.0833333 -0.0183333 0
0.08 -0.0183333 0
0.0766667 -0.0183333 0
0.0733333 -0.0183333 0
0.07 -0.0183333 0
0.0666667 -0.0183333 0
0.0633333 -0.0183333 0
0.06 -0.0183333 0
0.0566667 -0.0183333 0
0.0533333 -0.0183333 0
0.05 -0.0183333 0
0.0466667 -0.0183333 0
0.0433333 -0.0183333 0
0.04 -0.0183333 0
0.0366667 -0.0183333 0
0.0333333 -0.0183333 0
0.03 -0.0183333 0
0.0266667 -0.0183333 0
0.0233333 -0.0183333 0
0.02 -0.0183333 0
0.0166667 -0.0183333 0
0.0133333 -0.0183333 0
0.01 -0.0183333 0
0.00666667 -0.0183333 0
0.00333333 -0.0183333 0
0 -0.0183333 0
0.1 -0.0216667 0
0.0966667 -0.0216667 0
0.0933333 -0.0216667 0
0.09 -0.0216667 0
0.0866667 -0.0216667 0
0.0833333 -0.0216667 0
0.08 -0.0216667 0
0.0766667 -0.0216667 0
0.0733333 -0.0216667 0
0.07 -0.0216667 0
0.0666667 -0.0216667 0
0.0633333 -0.0216667 0
0.06 -0.0216667 0
0.0566667 -0.0216667 0
0.0533333 -0.0216667 0
0.05 -0.0216667 0
0.0466667 -0.0216667 0
0.0433333 -0.0216667 0
0.04 -0.0216667 0
0.0366667 -0.0216667 0
0.0333333 -0.0216667 0
0.03 -0.0216667 0
0.0266667 -0.0216667 0
0.0233333 -0.0216667 0
0.02 -0.0216667 0
0.0166667 -0.0216667 0
0.0133333 -0.0216667 0
0.01 -0.0216667 0
0.00666667 -0.0216667 0
0.00333333 -0.0216667 0
0 -0.0216667 0
0.1 -0.025 0
0.0966667 -0.025 0
0.0933333 -0.025 0
0.09 -0.025 0
0.0866667 -0.025 0
0.0833333 -0.025 0
0.08 -0.025 0
0.0766667 -0.025 0
0.0733333 -0.025 0
0.07 -0.025 0
0.0666667 -0.025 0
0.0633333 -0.025 0
0.06 -0.025 0
0.0566667 -0.025 0
0.0533333 -0.025 0
0.05 -0.025 0
0.0466667 -0.025 0
0.0433333 -0.025 0
0.04 -0.025 0
0.0366667 -0.025 0
0.0333333 -0.025 0
0.03 -0.025 0
0.0266667 -0.025 0
0.0233333 -0.025 0
0.02 -0.025 0
0.0166667 -0.025 0
0.0133333 -0.025 0
0.01 -0.025 0
0.00666667 -0.025 0
0.00333333 -0.025 0
0 -0.025 0
0.1 -0.0283333 0
0.0966667 -0.0283333 0
0.0933333 -0.0283333 0
0.09 -0.0283333 0
0.0866667 -0.0283333 0
0.0833333 -0.0283333 0
0.08 -0.0283333 0
0.0766667 -0.0283333 0
0.0733333 -0.0283333 0
0.07 -0.0283333 0
0.0666667 -0.0283333 0
0.0633333 -0.0283333 0
0.06 -0.0283333 0
0.0566667 -0.0283333 0
0.0533333 -0.0283333 0
0.05 -0.0283333 0
0.0466667 -0.0283333 0
0.0433333 -0.0283333 0
0.04 -0.0283333 0
0.0366667 -0.0283333 0
0.0333333 -0.0283333 0
0.03 -0.0283333 0
0.0266667 -0.0283333 0
0.0233333 -0.0283333 0
0.02 -0.0283333 0
0.0166667 -0.0283333 0
0.0133333 -0.0283333 0
0.01 -0.0283333 0
0.00666667 -0.0283333 0
0.00333333 -0.0283333 0
0 -0.0283333 0
0.1 -0.0316667 0
0.0966667 -0.0316667 0
0.0933333 -0.0316667 0
0.09 -0.0316667 0
0.0866667 -0.0316667 0
0.0833333 -0.0316667 0
0.08 -0.0316667 0
0.0766667 -0.0316667 0
0.0733333 -0.0316667 0
0.07 -0.0316667 0
0.0666667 -0.0316667 0
0.0633333 -0.0316667 0
0.06 -0.0316667 0
0.0566667 -0.0316667 0
0.0533333 -0.0316667 0
0.05 -0.0316667 0
0.0466667 -0.0316667 0
0.0433333 -0.0316667 0
0.04 -0.0316667 0
0.0366667 -0.0316667 0
0.0333333 -0.0316667 0
0.03 -0.0316667 0
0.0266667 -0.0316667 0
0.0233333 -0.0316667 0
0.02 -0.0316667 0
0.0166667 -0.0316667 0
0.0133333 -0.0316667 0
0.01 -0.0316667 0
0.00666667 -0.0316667 0
0.00333333 -0.0316667 0
0 -0.0316667 0
0.1 -0.035 0
0.0966667 -0.035 0
0.0933333 -0.035 0
0.09 -0.035 0
0.0866667 -0.035 0
0.0833333 -0.035 0
0.08 -0.035 0
0.0766667 -0.035 0
0.0733333 -0.035 0
0.07 -0.035 0
0.0666667 -0.035 0
0.0633333 -0.035 0
0.06 -0.035 0
0.0566667 -0.035 0
0.0533333 -0.035 0
0.05 -0.035 0
0.0466667 -0.035 0
0.0433333 -0.035 0
0.04 -0.035 0
0.0366667 -0.035 0
0.0333333 -0.035 0
0.03 -0.035 0
0.0266667 -0.035 0
0.0233333 -0.035 0
0.02 -0.035 0
0.0166667 -0.035 0
0.0133333 -0.035 0
0.01 -0.035 0
0.00666667 -0.035 0
0.00333333 -0.035 0
0 -0.035 0
0.1 -0.0383333 0
0.0966667 -0.0383333 0
0.0933333 -0.0383333 0
0.09 -0.0383333 0
0.0866667 -0.0383333 0
0.0833333 -0.0383333 0
0.08 -0.0383333 0
0.0766667 -0.0383333 0
0.0733333 -0.0383333 0
0.07 -0.0383333 0
0.0666667 -0.0383333 0
0.0633333 -0.0383333 0
0.06 -0.0383333 0
0.0566667 -0.0383333 0
0.0533333 -0.0383333 0
0.05 -0.0383333 0
0.0466667 -0.0383333 0
0.0433333 -0.0383333 0
0.04 -0.0383333 0
0.0366667 -0.0383333 0
0.0333333 -0.0383333 0
0.03 -0.0383333 0
0.0266667 -0.0383333 0
0.0233333 -0.0383333 0
0.02 -0.0383333 0
0.0166667 -0.0383333 0
0.0133333 -0.0383333 0
0.01 -0.0383333 0
0.00666667 -0.0383333 0
0.00333333 -0.0383333 0
0 -0.0383333 0
0.1 -0.0416667 0
0.0966667 -0.0416667 0
0.0933333 -0.0416667 0
0.09 -0.0416667 0
0.0866667 -0.0416667 0
0.0833333 -0.0416667 0
0.08 -0.0416667 0
0.0766667 -0.0416667 0
0.0733333 -0.0416667 0
0.07 -0.0416667 0
0.0666667 -0.0416667 0
0.0633333 -0.0416667 0
0.06 -0.0416667 0
0.0566667 -0.0416667 0
0.0533333 -0.0416667 0
0.05 -0.0416667 0
0.0466667 -0.0416667 0
0.0433333 -0.0416667 0
0.04 -0.0416667 0
0.0366667 -0.0416667 0
0.0333333 -0.0416667 0
0.03 -0.0416667 0
0.0266667 -0.0416667 0
0.0233333 -0.0416667 0
0.02 -0.0416667 0
0.0166667 -0.0416667 0
0.0133333 -0.0416667 0
0.01 -0.0416667 0
0.00666667 -0.0416667 0
0.00333333 -0.0416667 0
0 -0.0416667 0
0.1 -0.045 0
0.0966667 -0.045 0
0.0933333 -0.045 0
0.09 -0.045 0
0.0866667 -0.045 0
0.0833333 -0.045 0
0.08 -0.045 0
0.0766667 -0.045 0
0.0733333 -0.045 0
0.07 -0.045 0
0.0666667 -0.045 0
0.0633333 -0.045 0
0.06 -0.045 0
0.0566667 -0.045 0
0.0533333 -0.045 0
0.05 -0.045 0
0.0466667 -0.045 0
0.0433333 -0.045 0
0.04 -0.045 0
0.0366667 -0.045 0
0.0333333 -0.045 0
0.03 -0.045 0
0.0266667 -0.045 0
0.0233333 -0.045 0
0.02 -0.045 0
0.0166667 -0.045 0
0.0133333 -0.045 0
0.01 -0.045 0
0.00666667 -0.045 0
0.00333333 -0.045 0
0 -0.045 0
0.1 -0.0483333 0
0.0966667 -0.0483333 0
0.0933333 -0.0483333 0
0.09 -0.0483333 0
0.0866667 -0.0483333 0
[...]
POINT_DATA 961
SCALARS Temp float 1
LOOKUP_TABLE default
1045.866973
1039.874159
1034.235076
1028.962167
1024.067068
1019.560617
1015.452747
1011.752552
1008.468188
1005.606926
1003.175077
1001.178011
999.620146
998.504922
997.834800
997.611261
997.834800
998.504923
999.620149
1001.178015
1003.175076
1005.606929
1008.468194
1011.752555
1015.452755
1019.560618
1024.067075
1028.962169
1034.235085
1039.874176
1045.866987
1039.874168
1033.648346
1027.790009
1022.312084
1017.226661
1012.544995
1008.277408
1004.433346
1001.021284
998.048773
995.522373
993.447659
991.829223
990.670638
989.974461
989.742231
989.974461
990.670639
991.829226
993.447663
995.522372
998.048777
1001.021290
1004.433349
1008.277416
1012.544996
1017.226668
1022.312087
1027.790017
1033.648361
1039.874177
1034.235078
1027.790003
1021.725355
1016.054515
1010.790000
1005.943461
1001.525584
997.546148
994.013924
990.936732
988.321360
986.173582
984.498150
983.298764
982.578069
982.337661
982.578070
983.298764
984.498153
986.173586
988.321359
990.936735
994.013930
997.546151
1001.525592
1005.943463
1010.790007
1016.054517
1021.725362
1027.790017
1034.235085
1028.962163
1022.312073
1016.054510
1010.203283
1004.771305
999.770600
995.212192
991.106171
987.461589
984.286512
981.587947
979.371849
977.643122
976.405583
975.661964
975.413909
975.661965
976.405584
977.643125
979.371852
981.587946
984.286516
987.461595
991.106174
995.212200
999.770601
1004.771312
1010.203285
1016.054517
1022.312086
1028.962169
1024.067070
1017.226655
1010.790001
1004.771312
999.183871
994.040046
989.351176
985.127641
981.378751
978.112804
975.337005
973.057483
971.279280
970.006323
969.241421
968.986266
969.241422
970.006324
971.279282
973.057486
975.337004
978.112807
981.378757
985.127644
989.351184
994.040047
999.183878
1004.771313
1010.790007
1017.226668
1024.067076
1019.560615
1012.544985
1005.943458
999.770603
994.040041
988.764459
983.955486
979.623766
975.778850
972.429246
969.582347
967.244435
965.420684
964.115121
963.330627
963.068936
963.330627
964.115122
965.420687
967.244439
969.582346
972.429250
975.778856
979.623769
983.955494
988.764460
994.040048
999.770603
1005.943464
1012.544997
1019.560620
1015.452751
1008.277404
1001.525587
995.212201
989.351178
983.955492
979.037039
974.606704
970.674254
967.248394
964.336682
961.945546
960.080275
958.744990
957.942636
957.674988
957.942636
958.744991
960.080278
961.945549
964.336681
967.248398
970.674260
974.606706
979.037047
983.955493
989.351185
995.212201
1001.525592
1008.277416
1015.452755
1011.752552
1004.433338
997.546147
991.106176
985.127639
979.623769
974.606699
970.087535
966.076239
962.581690
959.611598
957.172519
955.269850
953.907792
953.089351
952.816336
953.089351
953.907793
955.269853
957.172523
959.611597
962.581694
966.076246
970.087538
974.606707
979.623769
985.127645
991.106176
997.546152
1004.433350
1011.752556
1008.468192
1001.021279
994.013927
987.461597
981.378753
975.778856
970.674254
966.076243
961.994962
958.439444
955.417532
952.935899
951.000033
949.614211
948.781491
948.503713
948.781491
949.614212
951.000036
952.935902
955.417531
958.439448
961.994969
966.076246
970.674262
975.778856
981.378759
987.461597
994.013931
1001.021291
1008.468195
1005.606926
998.048765
990.936730
984.286517
978.112801
972.429249
967.248389
962.581690
958.439439
954.830805
951.763750
949.245043
947.280259
945.873734
945.028574
944.746646
945.028574
945.873735
947.280262
949.245047
951.763749
954.830809
958.439446
962.581693
967.248397
972.429249
978.112807
984.286516
990.936735
998.048777
1005.606929
1003.175075
995.522362
988.321356
981.587949
975.337000
969.582346
964.336674
959.611595
955.417525
951.763747
948.658323
946.108107
944.118743
942.694623
941.838889
941.553435
941.838890
942.694624
944.118746
946.108111
948.658321
951.763751
955.417531
959.611597
964.336682
969.582346
975.337006
981.587948
988.321361
995.522374
1003.175078
1001.178012
993.447651
986.173581
979.371854
973.057481
967.244439
961.945542
957.172520
952.935895
949.245044
946.108111
943.532020
941.522471
940.083902
939.219486
938.931135
939.219486
940.083902
941.522474
943.532024
946.108110
949.245048
952.935902
957.172522
961.945550
967.244438
973.057487
979.371853
986.173586
993.447663
1001.178016
999.620147
991.829215
984.498149
977.643127
971.279278
965.420687
960.080271
955.269850
951.000029
947.280259
944.118747
941.522471
939.497176
938.047335
937.176145
936.885535
937.176146
938.047335
939.497179
941.522475
944.118745
947.280263
951.000036
955.269853
960.080279
965.420687
971.279284
977.643126
984.498154
991.829227
999.620150
998.504921
990.670628
983.298761
976.405587
970.006320
964.115123
958.744984
953.907791
949.614206
945.873733
942.694625
940.083899
938.047333
936.589422
935.713384
935.421156
935.713384
936.589423
938.047336
940.083903
942.694624
945.873737
949.614212
953.907793
958.744993
964.115122
970.006326
976.405586
983.298766
990.670641
998.504925
997.834799
989.974451
982.578067
975.661968
969.241418
963.330629
957.942630
953.089350
948.781485
945.028573
941.838892
939.219484
937.176144
935.713384
934.834433
934.541233
934.834433
935.713385
937.176147
939.219488
941.838890
945.028577
948.781492
953.089352
957.942639
963.330628
969.241424
975.661967
982.578072
989.974464
997.834803
997.611260
989.742221
982.337659
975.413913
968.986263
963.068938
957.674982
952.816335
948.503707
944.746645
941.553437
938.931133
936.885534
935.421157
934.541234
934.247710
934.541234
935.421158
936.885537
938.931137
941.553436
944.746649
948.503714
952.816338
957.674991
963.068938
968.986270
975.413912
982.337664
989.742234
997.611264
997.834799
989.974451
982.578067
975.661968
969.241418
963.330629
957.942630
953.089350
948.781485
945.028573
941.838892
939.219484
937.176144
935.713384
934.834433
934.541234
934.834433
935.713385
937.176147
939.219488
941.838891
945.028577
948.781492
953.089352
957.942639
963.330629
969.241425
975.661968
982.578072
989.974464
997.834803
998.504921
990.670628
983.298761
976.405587
970.006319
964.115123
958.744984
953.907791
949.614206
945.873733
942.694625
940.083900
938.047333
936.589422
935.713384
935.421157
935.713385
936.589423
938.047336
940.083904
942.694624
945.873738
949.614213
953.907794
958.744993
964.115123
970.006326
976.405587
983.298767
990.670641
998.504925
999.620146
991.829215
984.498149
977.643127
971.279278
965.420687
960.080271
955.269850
951.000029
947.280259
944.118747
941.522471
939.497177
938.047335
937.176146
936.885536
937.176146
938.047336
939.497180
941.522476
944.118746
947.280264
951.000037
955.269854
960.080281
965.420688
971.279285
977.643127
984.498155
991.829228
999.620151
1001.178012
993.447651
986.173581
979.371854
973.057481
967.244439
961.945542
957.172520
952.935895
949.245045
946.108112
943.532021
941.522472
940.083902
939.219486
938.931135
939.219487
940.083903
941.522475
943.532026
946.108111
949.245050
952.935903
957.172524
961.945552
967.244440
973.057489
979.371855
986.173588
993.447665
1001.178017
1003.175076
995.522363
988.321357
981.587950
975.337001
969.582348
964.336676
959.611597
955.417526
951.763749
948.658325
946.108109
944.118745
942.694625
941.838892
941.553437
941.838892
942.694626
944.118749
946.108114
948.658324
951.763754
955.417534
959.611601
964.336686
969.582349
975.337009
981.587951
988.321364
995.522377
1003.175082
1005.606924
998.048763
990.936728
984.286515
978.112799
972.429247
967.248387
962.581688
958.439438
954.830804
951.763749
949.245042
947.280258
945.873733
945.028573
944.746645
945.028573
945.873734
947.280261
949.245047
951.763748
954.830809
958.439446
962.581693
967.248398
972.429249
978.112808
984.286517
990.936736
998.048778
1005.606930
1008.468193
1001.021280
994.013928
987.461599
981.378754
975.778858
970.674255
966.076246
961.994965
958.439446
955.417535
952.935901
951.000036
949.614215
948.781494
948.503716
948.781495
949.614216
951.000040
952.935906
955.417535
958.439452
961.994973
966.076250
970.674266
975.778861
981.378763
987.461602
994.013936
1001.021296
1008.468200
1011.752549
1004.433335
997.546144
991.106173
985.127636
979.623766
974.606697
970.087533
966.076237
962.581688
959.611596
957.172518
955.269849
953.907791
953.089350
952.816335
953.089350
953.907792
955.269852
957.172523
959.611597
962.581694
966.076246
970.087538
974.606708
979.623770
985.127646
991.106177
997.546153
1004.433351
1011.752557
1015.452753
1008.277406
1001.525590
995.212204
989.351181
983.955496
979.037042
974.606708
970.674258
967.248398
964.336687
961.945551
960.080281
958.744996
957.942642
957.674994
957.942643
958.744997
960.080285
961.945556
964.336687
967.248404
970.674267
974.606713
979.037054
983.955500
989.351192
995.212208
1001.525600
1008.277423
1015.452762
1019.560614
1012.544983
1005.943457
999.770601
994.040040
988.764458
983.955486
979.623766
975.778850
972.429247
969.582348
967.244436
965.420685
964.115122
963.330628
963.068938
963.330629
964.115124
965.420689
967.244441
969.582348
972.429253
975.778859
979.623772
983.955498
988.764463
994.040052
999.770607
1005.943468
1012.545002
1019.560624
1024.067064
1017.226649
1010.789995
1004.771306
999.183865
994.040040
989.351171
985.127636
981.378746
978.112799
975.337001
973.057478
971.279276
970.006319
969.241418
968.986263
969.241419
970.006321
971.279280
973.057484
975.337002
978.112806
981.378756
985.127643
989.351184
994.040046
999.183878
1004.771313
1010.790008
1017.226669
1024.067077
1028.962162
1022.312072
1016.054509
1010.203283
1004.771306
999.770601
995.212194
991.106173
987.461591
984.286515
981.587949
979.371852
977.643125
976.405587
975.661968
975.413913
975.661969
976.405588
977.643129
979.371857
981.587951
984.286521
987.461601
991.106180
995.212206
999.770608
1004.771319
1010.203292
1016.054524
1022.312094
1028.962177
1034.235071
1027.789996
1021.725348
1016.054509
1010.789994
1005.943456
1001.525580
997.546143
994.013920
990.936728
988.321357
986.173579
984.498147
983.298761
982.578067
982.337659
982.578068
983.298762
984.498151
986.173584
988.321358
990.936734
994.013930
997.546150
1001.525593
1005.943464
1010.790008
1016.054519
1021.725365
1027.790021
1034.235089
1039.874166
1033.648345
1027.790010
1022.312086
1017.226663
1012.544998
1008.277412
1004.433351
1001.021289
998.048779
995.522379
993.447666
991.829230
990.670645
989.974468
989.742238
989.974469
990.670647
991.829234
993.447671
995.522380
998.048785
1001.021298
1004.433358
1008.277425
1012.545006
1017.226678
1022.312097
1027.790029
1033.648374
1039.874192
1045.866962
1039.874150
1034.235071
1028.962162
1024.067065
1019.560614
1015.452745
1011.752550
1008.468186
1005.606924
1003.175076
1001.178011
999.620146
998.504922
997.834800
997.611261
997.834800
998.504923
999.620149
1001.178016
1003.175078
1005.606931
1008.468196
1011.752557
1015.452757
1019.560621
1024.067079
1028.962174
1034.235091
1039.874184
1045.866999
