# vtk DataFile Version 2.0
Unstructured Grid Example
ASCII
DATASET UNSTRUCTURED_GRID

POINTS 961 float
0.1 0.005 0
0.0966667 0.005 0
0.0933333 0.005 0
0.09 0.005 0
0.0866667 0.005 0
0.0833333 0.005 0
0.08 0.005 0
0.0766667 0.005 0
0.0733333 0.005 0
0.07 0.005 0
0.0666667 0.005 0
0.0633333 0.005 0
0.06 0.005 0
0.0566667 0.005 0
0.0533333 0.005 0
0.05 0.005 0
0.0466667 0.005 0
0.0433333 0.005 0
0.04 0.005 0
0.0366667 0.005 0
0.0333333 0.005 0
0.03 0.005 0
0.0266667 0.005 0
0.0233333 0.005 0
0.02 0.005 0
0.0166667 0.005 0
0.0133333 0.005 0
0.01 0.005 0
0.00666667 0.005 0
0.00333333 0.005 0
0 0.005 0
0.1 0.00166667 0
0.0966667 0.00166667 0
0.0933333 0.00166667 0
0.09 0.00166667 0
0.0866667 0.00166667 0
0.0833333 0.00166667 0
0.08 0.00166667 0
0.0766667 0.00166667 0
0.0733333 0.00166667 0
0.07 0.00166667 0
0.0666667 0.00166667 0
0.0633333 0.00166667 0
0.06 0.00166667 0
0.0566667 0.00166667 0
0.0533333 0.00166667 0
0.05 0.00166667 0
0.0466667 0.00166667 0
0.0433333 0.00166667 0
0.04 0.00166667 0
0.0366667 0.00166667 0
0.0333333 0.00166667 0
0.03 0.00166667 0
0.0266667 0.00166667 0
0.0233333 0.00166667 0
0.02 0.00166667 0
0.0166667 0.00166667 0
0.0133333 0.00166667 0
0.01 0.00166667 0
0.00666667 0.00166667 0
0.00333333 0.00166667 0
0 0.00166667 0
0.1 -0.00166667 0
0.0966667 -0.00166667 0
0.0933333 -0.00166667 0
0.09 -0.00166667 0
0.0866667 -0.00166667 0
0.0833333 -0.00166667 0
0.08 -0.00166667 0
0.0766667 -0.00166667 0
0.0733333 -0.00166667 0
0.07 -0.00166667 0
0.0666667 -0.00166667 0
0.0633333 -0.00166667 0
0.06 -0.00166667 0
0.0566667 -0.00166667 0
0.0533333 -0.00166667 0
0.05 -0.00166667 0
0.0466667 -0.00166667 0
0.0433333 -0.00166667 0
0.04 -0.00166667 0
0.0366667 -0.00166667 0
0.0333333 -0.00166667 0
0.03 -0.00166667 0
0.0266667 -0.00166667 0
0.0233333 -0.00166667 0
0.02 -0.00166667 0
0.0166667 -0.00166667 0
0.0133333 -0.00166667 0
0.01 -0.00166667 0
0.00666667 -0.00166667 0
0.00333333 -0.00166667 0
0 -0.00166667 0
0.1 -0.005 0
0.0966667 -0.005 0
0.0933333 -0.005 0
0.09 -0.005 0
0.0866667 -0.005 0
0.0833333 -0.005 0
0.08 -0.005 0
0.0766667 -0.005 0
0.0733333 -0.005 0
0.07 -0.005 0
0.0666667 -0.005 0
0.0633333 -0.005 0
0.06 -0.005 0
0.0566667 -0.005 0
0.0533333 -0.005 0
0.05 -0.005 0
0.0466667 -0.005 0
0.0433333 -0.005 0
0.04 -0.005 0
0.0366667 -0.005 0
0.0333333 -0.005 0
0.03 -0.005 0
0.0266667 -0.005 0
0.0233333 -0.005 0
0.02 -0.005 0
0.0166667 -0.005 0
0.0133333 -0.005 0
0.01 -0.005 0
0.00666667 -0.005 0
0.00333333 -0.005 0
0 -0.005 0
0.1 -0.00833333 0
0.0966667 -0.00833333 0
0.0933333 -0.00833333 0
0.09 -0.00833333 0
0.0866667 -0.00833333 0
0.0833333 -0.00833333 0
0.08 -0.00833333 0
0.0766667 -0.00833333 0
0.0733333 -0.00833333 0
0.07 -0.00833333 0
0.0666667 -0.00833333 0
0.0633333 -0.00833333 0
0.06 -0.00833333 0
0.0566667 -0.00833333 0
0.0533333 -0.00833333 0
0.05 -0.00833333 0
0.0466667 -0.00833333 0
0.0433333 -0.00833333 0
0.04 -0.00833333 0
0.0366667 -0.00833333 0
0.0333333 -0.00833333 0
0.03 -0.00833333 0
0.0266667 -0.00833333 0
0.0233333 -0.00833333 0
0.02 -0.00833333 0
0.0166667 -0.00833333 0
0.0133333 -0.00833333 0
0.01 -0.00833333 0
0.00666667 -0.00833333 0
0.00333333 -0.00833333 0
0 -0.00833333 0
0.1 -0.0116667 0
0.0966667 -0.0116667 0
0.0933333 -0.0116667 0
0.09 -0.0116667 0
0.0866667 -0.0116667 0
0.0833333 -0.0116667 0
0.08 -0.0116667 0
0.0766667 -0.0116667 0
0.0733333 -0.0116667 0
0.07 -0.0116667 0
0.0666667 -0.0116667 0
0.0633333 -0.0116667 0
0.06 -0.0116667 0
0.0566667 -0.0116667 0
0.0533333 -0.0116667 0
0.05 -0.0116667 0
0.0466667 -0.0116667 0
0.0433333 -0.0116667 0
0.04 -0.0116667 0
0.0366667 -0.0116667 0
0.0333333 -0.0116667 0
0.03 -0.0116667 0
0.0266667 -0.0116667 0
0.0233333 -0.0116667 0
0.02 -0.0116667 0
0.0166667 -0.0116667 0
0.0133333 -0.0116667 0
0.01 -0.0116667 0
0.00666667 -0.0116667 0
0.00333333 -0.0116667 0
0 -0.0116667 0
0.1 -0.015 0
0.0966667 -0.015 0
0.0933333 -0.015 0
0.09 -0.015 0
0.0866667 -0.015 0
0.0833333 -0.015 0
0.08 -0.015 0
0.0766667 -0.015 0
0.0733333 -0.015 0
0.07 -0.015 0
0.0666667 -0.015 0
0.0633333 -0.015 0
0.06 -0.015 0
0.0566667 -0.015 0
0.0533333 -0.015 0
0.05 -0.015 0
0.0466667 -0.015 0
0.0433333 -0.015 0
0.04 -0.015 0
0.0366667 -0.015 0
0.0333333 -0.015 0
0.03 -0.015 0
0.0266667 -0.015 0
0.0233333 -0.015 0
0.02 -0.015 0
0.0166667 -0.015 0
0.0133333 -0.015 0
0.01 -0.015 0
0.00666667 -0.015 0
0.00333333 -0.015 0
0 -0.015 0
0.1 -0.0183333 0
0.0966667 -0.0183333 0
0.0933333 -0.0183333 0
0.09 -0.0183333 0
0.0866667 -0.0183333 0
0.0833333 -0.0183333 0
0.08 -0.0183333 0
0.0766667 -0.0183333 0
0.0733333 -0.0183333 0
0.07 -0.0183333 0
0.0666667 -0.0183333 0
0.0633333 -0.0183333 0
0.06 -0.0183333 0
0.0566667 -0.0183333 0
0.0533333 -0.0183333 0
0.05 -0.0183333 0
0.0466667 -0.0183333 0
0.0433333 -0.0183333 0
0.04 -0.0183333 0
0.0366667 -0.0183333 0
0.0333333 -0.0183333 0
0.03 -0.0183333 0
0.0266667 -0.0183333 0
0.0233333 -0.0183333 0
0.02 -0.0183333 0
0.0166667 -0.0183333 0
0.0133333 -0.0183333 0
0.01 -0.0183333 0
0.00666667 -0.0183333 0
0.00333333 -0.0183333 0
0 -0.0183333 0
0.1 -0.0216667 0
0.0966667 -0.0216667 0
0.0933333 -0.0216667 0
0.09 -0.0216667 0
0.0866667 -0.0216667 0
0.0833333 -0.0216667 0
0.08 -0.0216667 0
0.0766667 -0.0216667 0
0.0733333 -0.0216667 0
0.07 -0.0216667 0
0.0666667 -0.0216667 0
0.0633333 -0.0216667 0
0.06 -0.0216667 0
0.0566667 -0.0216667 0
0.0533333 -0.0216667 0
0.05 -0.0216667 0
0.0466667 -0.0216667 0
0.0433333 -0.0216667 0
0.04 -0.0216667 0
0.0366667 -0.0216667 0
0.0333333 -0.0216667 0
0.03 -0.0216667 0
0.0266667 -0.0216667 0
0.0233333 -0.0216667 0
0.02 -0.0216667 0
0.0166667 -0.0216667 0
0.0133333 -0.0216667 0
0.01 -0.0216667 0
0.00666667 -0.0216667 0
0.00333333 -0.0216667 0
0 -0.0216667 0
0.1 -0.025 0
0.0966667 -0.025 0
0.0933333 -0.025 0
0.09 -0.025 0
0.0866667 -0.025 0
0.0833333 -0.025 0
0.08 -0.025 0
0.0766667 -0.025 0
0.0733333 -0.025 0
0.07 -0.025 0
0.0666667 -0.025 0
0.0633333 -0.025 0
0.06 -0.025 0
0.0566667 -0.025 0
0.0533333 -0.025 0
0.05 -0.025 0
0.0466667 -0.025 0
0.0433333 -0.025 0
0.04 -0.025 0
0.0366667 -0.025 0
0.0333333 -0.025 0
0.03 -0.025 0
0.0266667 -0.025 0
0.0233333 -0.025 0
0.02 -0.025 0
0.0166667 -0.025 0
0.0133333 -0.025 0
0.01 -0.025 0
0.00666667 -0.025 0
0.00333333 -0.025 0
0 -0.025 0
0.1 -0.0283333 0
0.0966667 -0.0283333 0
0.0933333 -0.0283333 0
0.09 -0.0283333 0
0.0866667 -0.0283333 0
0.0833333 -0.0283333 0
0.08 -0.0283333 0
0.0766667 -0.0283333 0
0.0733333 -0.0283333 0
0.07 -0.0283333 0
0.0666667 -0.0283333 0
0.0633333 -0.0283333 0
0.06 -0.0283333 0
0.0566667 -0.0283333 0
0.0533333 -0.0283333 0
0.05 -0.0283333 0
0.0466667 -0.0283333 0
0.0433333 -0.0283333 0
0.04 -0.0283333 0
0.0366667 -0.0283333 0
0.0333333 -0.0283333 0
0.03 -0.0283333 0
0.0266667 -0.0283333 0
0.0233333 -0.0283333 0
0.02 -0.0283333 0
0.0166667 -0.0283333 0
0.0133333 -0.0283333 0
0.01 -0.0283333 0
0.00666667 -0.0283333 0
0.00333333 -0.0283333 0
0 -0.0283333 0
0.1 -0.0316667 0
0.0966667 -0.0316667 0
0.0933333 -0.0316667 0
0.09 -0.0316667 0
0.0866667 -0.0316667 0
0.0833333 -0.0316667 0
0.08 -0.0316667 0
0.0766667 -0.0316667 0
0.0733333 -0.0316667 0
0.07 -0.0316667 0
0.0666667 -0.0316667 0
0.0633333 -0.0316667 0
0.06 -0.0316667 0
0.0566667 -0.0316667 0
0.0533333 -0.0316667 0
0.05 -0.0316667 0
0.0466667 -0.0316667 0
0.0433333 -0.0316667 0
0.04 -0.0316667 0
0.0366667 -0.0316667 0
0.0333333 -0.0316667 0
0.03 -0.0316667 0
0.0266667 -0.0316667 0
0.0233333 -0.0316667 0
0.02 -0.0316667 0
0.0166667 -0.0316667 0
0.0133333 -0.0316667 0
0.01 -0.0316667 0
0.00666667 -0.0316667 0
0.00333333 -0.0316667 0
0 -0.0316667 0
0.1 -0.035 0
0.0966667 -0.035 0
0.0933333 -0.035 0
0.09 -0.035 0
0.0866667 -0.035 0
0.0833333 -0.035 0
0.08 -0.035 0
0.0766667 -0.035 0
0.0733333 -0.035 0
0.07 -0.035 0
0.0666667 -0.035 0
0.0633333 -0.035 0
0.06 -0.035 0
0.0566667 -0.035 0
0.0533333 -0.035 0
0.05 -0.035 0
0.0466667 -0.035 0
0.0433333 -0.035 0
0.04 -0.035 0
0.0366667 -0.035 0
0.0333333 -0.035 0
0.03 -0.035 0
0.0266667 -0.035 0
0.0233333 -0.035 0
0.02 -0.035 0
0.0166667 -0.035 0
0.0133333 -0.035 0
0.01 -0.035 0
0.00666667 -0.035 0
0.00333333 -0.035 0
0 -0.035 0
0.1 -0.0383333 0
0.0966667 -0.0383333 0
0.0933333 -0.0383333 0
0.09 -0.0383333 0
0.0866667 -0.0383333 0
0.0833333 -0.0383333 0
0.08 -0.0383333 0
0.0766667 -0.0383333 0
0.0733333 -0.0383333 0
0.07 -0.0383333 0
0.0666667 -0.0383333 0
0.0633333 -0.0383333 0
0.06 -0.0383333 0
0.0566667 -0.0383333 0
0.0533333 -0.0383333 0
0.05 -0.0383333 0
0.0466667 -0.0383333 0
0.0433333 -0.0383333 0
0.04 -0.0383333 0
0.0366667 -0.0383333 0
0.0333333 -0.0383333 0
0.03 -0.0383333 0
0.0266667 -0.0383333 0
0.0233333 -0.0383333 0
0.02 -0.0383333 0
0.0166667 -0.0383333 0
0.0133333 -0.0383333 0
0.01 -0.0383333 0
0.00666667 -0.0383333 0
0.00333333 -0.0383333 0
0 -0.0383333 0
0.1 -0.0416667 0
0.0966667 -0.0416667 0
0.0933333 -0.0416667 0
0.09 -0.0416667 0
0.0866667 -0.0416667 0
0.0833333 -0.0416667 0
0.08 -0.0416667 0
0.0766667 -0.0416667 0
0.0733333 -0.0416667 0
0.07 -0.0416667 0
0.0666667 -0.0416667 0
0.0633333 -0.0416667 0
0.06 -0.0416667 0
0.0566667 -0.0416667 0
0.0533333 -0.0416667 0
0.05 -0.0416667 0
0.0466667 -0.0416667 0
0.0433333 -0.0416667 0
0.04 -0.0416667 0
0.0366667 -0.0416667 0
0.0333333 -0.0416667 0
0.03 -0.0416667 0
0.0266667 -0.0416667 0
0.0233333 -0.0416667 0
0.02 -0.0416667 0
0.0166667 -0.0416667 0
0.0133333 -0.0416667 0
0.01 -0.0416667 0
0.00666667 -0.0416667 0
0.00333333 -0.0416667 0
0 -0.0416667 0
0.1 -0.045 0
0.0966667 -0.045 0
0.0933333 -0.045 0
0.09 -0.045 0
0.0866667 -0.045 0
0.0833333 -0.045 0
0.08 -0.045 0
0.0766667 -0.045 0
0.0733333 -0.045 0
0.07 -0.045 0
0.0666667 -0.045 0
0.0633333 -0.045 0
0.06 -0.045 0
0.0566667 -0.045 0
0.0533333 -0.045 0
0.05 -0.045 0
0.0466667 -0.045 0
0.0433333 -0.045 0
0.04 -0.045 0
0.0366667 -0.045 0
0.0333333 -0.045 0
0.03 -0.045 0
0.0266667 -0.045 0
0.0233333 -0.045 0
0.02 -0.045 0
0.0166667 -0.045 0
0.0133333 -0.045 0
0.01 -0.045 0
0.00666667 -0.045 0
0.00333333 -0.045 0
0 -0.045 0
0.1 -0.0483333 0
0.0966667 -0.0483333 0
0.0933333 -0.0483333 0
0.09 -0.0483333 0
0.0866667 -0.0483333 0
[...]
POINT_DATA 961
SCALARS Temp float 1
LOOKUP_TABLE default
733.224056
715.086904
698.043943
682.131997
667.384329
653.830732
641.497381
630.407197
620.579793
612.031861
604.777225
598.827132
594.190483
590.873963
588.882221
588.218005
588.882222
590.873964
594.190489
598.827140
604.777221
612.031870
620.579808
630.407203
641.497401
653.830733
667.384347
682.132002
698.043966
715.086956
733.224096
715.086932
696.245031
678.539837
662.009611
646.688903
632.608664
619.796084
608.274977
598.065716
589.185642
581.649117
575.467824
570.651012
567.205624
565.136490
564.446465
565.136490
567.205625
570.651018
575.467833
581.649112
589.185651
598.065731
608.274983
619.796105
632.608665
646.688922
662.009616
678.539859
696.245075
715.086957
698.043948
678.539819
660.212346
643.101137
627.241956
612.666842
599.403941
587.477903
576.909818
567.717637
559.916225
553.517678
548.531569
544.965085
542.823227
542.108950
542.823228
544.965087
548.531576
553.517687
559.916221
567.717646
576.909834
587.477909
599.403962
612.666843
627.241975
643.101140
660.212365
678.539859
698.043967
682.131987
662.009577
643.101121
625.447484
609.085564
594.048413
580.365073
568.060974
557.157874
547.674295
539.625573
533.024187
527.880014
524.200469
521.990712
521.253792
521.990713
524.200471
527.880020
533.024196
539.625568
547.674304
557.157891
568.060980
580.365095
594.048414
609.085582
625.447485
643.101138
662.009614
682.132002
667.384335
646.688886
627.241959
609.085583
592.257707
576.792327
562.719309
550.064809
538.851206
529.097547
520.819608
514.030222
508.739549
504.955215
502.682526
501.924619
502.682527
504.955216
508.739556
514.030232
520.819603
529.097556
538.851222
550.064814
562.719330
576.792326
592.257724
609.085582
627.241974
646.688921
667.384348
653.830727
632.608634
612.666832
594.048420
576.792314
560.933373
546.502225
533.525692
522.026722
512.024848
503.536247
496.574081
491.148767
487.268127
484.937601
484.160406
484.937602
487.268128
491.148774
496.574091
503.536242
512.024857
522.026738
533.525697
546.502246
560.933372
576.792330
594.048418
612.666846
632.608668
653.830738
641.497392
619.796071
599.403949
580.365099
562.719315
546.502245
531.745208
518.475632
506.716985
496.489242
487.808944
480.689551
475.141716
471.173438
468.790282
467.995535
468.790282
471.173440
475.141723
480.689560
487.808938
496.489251
506.717001
518.475637
531.745229
546.502242
562.719331
580.365095
599.403962
619.796104
641.497402
630.407199
608.274953
587.477900
568.060989
550.064803
533.525700
518.475620
504.942537
492.950384
482.519535
473.666860
466.406086
460.748079
456.700996
454.270513
453.459983
454.270513
456.700997
460.748086
466.406096
473.666854
482.519544
492.950401
504.942541
518.475641
533.525697
550.064819
568.060984
587.477912
608.274986
630.407207
620.579805
598.065702
576.909826
557.157901
538.851211
522.026741
506.716985
492.950397
480.751325
470.140495
461.135068
453.749010
447.993374
443.876458
441.404036
440.579521
441.404037
443.876459
447.993381
453.749020
461.135062
470.140504
480.751342
492.950401
506.717005
522.026738
538.851226
557.157895
576.909837
598.065734
620.579813
612.031862
589.185617
567.717633
547.674310
529.097541
512.024856
496.489228
482.519535
470.140482
459.373101
450.234809
442.739776
436.899220
432.721562
430.212662
429.375981
430.212662
432.721563
436.899227
442.739786
450.234802
459.373110
470.140499
482.519539
496.489249
512.024852
529.097556
547.674304
567.717644
589.185649
612.031870
604.777218
581.649084
559.916214
539.625579
520.819593
503.536247
487.808921
473.666850
461.135046
450.234799
440.983742
433.396222
427.483593
423.254383
420.714522
419.867517
420.714523
423.254384
427.483601
433.396232
440.983736
450.234808
461.135062
473.666854
487.808942
503.536242
520.819607
539.625573
559.916224
581.649116
604.777226
598.827135
575.467801
553.517677
533.024205
514.030219
496.574093
480.689541
466.406089
453.749000
442.739780
433.396235
425.732858
419.761116
415.489624
412.924370
412.068896
412.924370
415.489625
419.761124
425.732867
433.396228
442.739789
453.749017
466.406093
480.689561
496.574088
514.030233
533.024198
553.517688
575.467834
598.827142
594.190485
570.650988
548.531567
527.880031
508.739544
491.148777
475.141705
460.748080
447.993363
436.899222
427.483605
419.761115
413.743309
409.438867
406.853826
405.991753
406.853826
409.438869
413.743317
419.761125
427.483599
436.899231
447.993379
460.748084
475.141726
491.148773
508.739559
527.880024
548.531578
570.651020
594.190493
590.873961
567.205595
544.965079
524.200482
504.955206
487.268132
471.173422
456.700993
443.876442
432.721560
423.254390
415.489617
409.438862
405.110852
402.511656
401.644863
402.511657
405.110853
409.438870
415.489628
423.254384
432.721569
443.876459
456.700997
471.173444
487.268128
504.955221
524.200475
544.965090
567.205628
590.873969
588.882220
565.136462
542.823222
521.990726
502.682518
484.937607
468.790266
454.270510
441.404021
430.212660
420.714530
412.924364
406.853821
402.511657
399.903961
399.034334
399.903962
402.511658
406.853829
412.924375
420.714524
430.212669
441.404038
454.270514
468.790288
484.937603
502.682533
521.990719
542.823233
565.136495
588.882228
588.218004
564.446437
542.108945
521.253805
501.924611
484.160412
467.995520
453.459981
440.579506
429.375980
419.867526
412.068892
405.991750
401.644865
399.034334
398.163762
399.034335
401.644866
405.991758
412.068902
419.867519
429.375990
440.579524
453.459986
467.995542
484.160409
501.924627
521.253800
542.108956
564.446471
588.218013
588.882220
565.136461
542.823222
521.990725
502.682518
484.937607
468.790266
454.270510
441.404021
430.212660
420.714531
412.924365
406.853822
402.511657
399.903961
399.034334
399.903962
402.511659
406.853830
412.924375
420.714525
430.212670
441.404039
454.270515
468.790289
484.937604
502.682534
521.990720
542.823234
565.136496
588.882229
590.873961
567.205595
544.965079
524.200482
504.955206
487.268132
471.173422
456.700993
443.876442
432.721560
423.254391
415.489618
409.438863
405.110853
402.511657
401.644864
402.511658
405.110854
409.438871
415.489629
423.254385
432.721571
443.876461
456.700999
471.173446
487.268130
504.955223
524.200477
544.965092
567.205630
590.873971
594.190485
570.650987
548.531567
527.880030
508.739544
491.148777
475.141704
460.748080
447.993363
436.899223
427.483606
419.761116
413.743310
409.438868
406.853827
405.991755
406.853828
409.438870
413.743319
419.761127
427.483601
436.899234
447.993382
460.748087
475.141729
491.148776
508.739562
527.880027
548.531581
570.651023
594.190496
598.827134
575.467800
553.517677
533.024204
514.030219
496.574092
480.689541
466.406089
453.749001
442.739780
433.396236
425.732859
419.761118
415.489625
412.924372
412.068898
412.924373
415.489627
419.761126
425.732871
433.396232
442.739792
453.749021
466.406097
480.689566
496.574092
514.030238
533.024202
553.517692
575.467838
598.827146
604.777221
581.649086
559.916217
539.625583
520.819597
503.536251
487.808926
473.666855
461.135051
450.234805
440.983748
433.396228
427.483600
423.254390
420.714530
419.867525
420.714531
423.254393
427.483609
433.396241
440.983745
450.234817
461.135072
473.666864
487.808952
503.536252
520.819617
539.625583
559.916234
581.649125
604.777235
612.031857
589.185611
567.717627
547.674304
529.097535
512.024850
496.489223
482.519529
470.140477
459.373097
450.234805
442.739772
436.899216
432.721559
430.212659
429.375978
430.212660
432.721562
436.899226
442.739785
450.234802
459.373110
470.140499
482.519539
496.489250
512.024853
529.097557
547.674306
567.717646
589.185652
612.031872
620.579808
598.065705
576.909830
557.157905
538.851216
522.026747
506.716990
492.950403
480.751332
470.140503
461.135076
453.749019
447.993383
443.876468
441.404046
440.579531
441.404048
443.876470
447.993392
453.749032
461.135074
470.140516
480.751355
492.950414
506.717019
522.026751
538.851240
557.157909
576.909851
598.065748
620.579826
630.407190
608.274944
587.477892
568.060980
550.064795
533.525692
518.475612
504.942530
492.950378
482.519529
473.666854
466.406081
460.748074
456.700992
454.270509
453.459979
454.270510
456.700994
460.748084
466.406094
473.666853
482.519544
492.950401
504.942542
518.475642
533.525699
550.064821
568.060987
587.477916
608.274989
630.407211
641.497399
619.796078
599.403957
580.365108
562.719324
546.502255
531.745219
518.475644
506.716998
496.489255
487.808958
480.689566
475.141732
471.173455
468.790299
467.995553
468.790300
471.173458
475.141742
480.689580
487.808958
496.489271
506.717022
518.475658
531.745250
546.502264
562.719353
580.365118
599.403984
619.796126
641.497423
653.830722
632.608630
612.666828
594.048417
576.792311
560.933371
546.502224
533.525691
522.026722
512.024849
503.536249
496.574084
491.148770
487.268131
484.937605
484.160411
484.937607
487.268134
491.148781
496.574098
503.536250
512.024865
522.026747
533.525706
546.502257
560.933383
576.792342
594.048431
612.666859
632.608681
653.830750
667.384318
646.688868
627.241941
609.085565
592.257691
576.792311
562.719294
550.064794
538.851192
529.097534
520.819595
514.030210
508.739537
504.955204
502.682516
501.924609
502.682518
504.955208
508.739548
514.030224
520.819596
529.097551
538.851217
550.064811
562.719328
576.792325
592.257724
609.085583
627.241977
646.688925
667.384351
682.131984
662.009574
643.101119
625.447484
609.085565
594.048416
580.365077
568.060979
557.157881
547.674302
539.625581
533.024196
527.880023
524.200480
521.990723
521.253803
521.990725
524.200483
527.880034
533.024210
539.625583
547.674319
557.157907
568.060997
580.365112
594.048432
609.085601
625.447506
643.101161
662.009637
682.132025
698.043927
678.539798
660.212326
643.101119
627.241940
612.666827
599.403927
587.477890
576.909806
567.717626
559.916215
553.517668
548.531560
544.965077
542.823219
542.108943
542.823221
544.965080
548.531570
553.517682
559.916217
567.717643
576.909832
587.477908
599.403963
612.666845
627.241979
643.101146
660.212374
678.539871
698.043980
715.086928
696.245029
678.539839
662.009617
646.688912
632.608675
619.796097
608.274991
598.065731
589.185659
581.649135
575.467843
570.651031
567.205644
565.136511
564.446487
565.136513
567.205648
570.651042
575.467857
581.649137
589.185676
598.065757
608.275009
619.796132
632.608694
646.688952
662.009647
678.539894
696.245114
715.087003
733.224024
715.086878
698.043927
682.131985
667.384319
653.830724
641.497374
630.407192
620.579789
612.031858
604.777222
598.827129
594.190481
590.873962
588.882221
588.218005
588.882222
590.873966
594.190491
598.827143
604.777224
612.031874
620.579814
630.407209
641.497408
653.830743
667.384358
682.132015
698.043983
715.086979
733.224134
