# vtk DataFile Version 2.0
Unstructured Grid Example
ASCII
DATASET UNSTRUCTURED_GRID

POINTS 961 float
0.1 0.005 0
0.0966667 0.005 0
0.0933333 0.005 0
0.09 0.005 0
0.0866667 0.005 0
0.0833333 0.005 0
0.08 0.005 0
0.0766667 0.005 0
0.0733333 0.005 0
0.07 0.005 0
0.0666667 0.005 0
0.0633333 0.005 0
0.06 0.005 0
0.0566667 0.005 0
0.0533333 0.005 0
0.05 0.005 0
0.0466667 0.005 0
0.0433333 0.005 0
0.04 0.005 0
0.0366667 0.005 0
0.0333333 0.005 0
0.03 0.005 0
0.0266667 0.005 0
0.0233333 0.005 0
0.02 0.005 0
0.0166667 0.005 0
0.0133333 0.005 0
0.01 0.005 0
0.00666667 0.005 0
0.00333333 0.005 0
0 0.005 0
0.1 0.00166667 0
0.0966667 0.00166667 0
0.0933333 0.00166667 0
0.09 0.00166667 0
0.0866667 0.00166667 0
0.0833333 0.00166667 0
0.08 0.00166667 0
0.0766667 0.00166667 0
0.0733333 0.00166667 0
0.07 0.00166667 0
0.0666667 0.00166667 0
0.0633333 0.00166667 0
0.06 0.00166667 0
0.0566667 0.00166667 0
0.0533333 0.00166667 0
0.05 0.00166667 0
0.0466667 0.00166667 0
0.0433333 0.00166667 0
0.04 0.00166667 0
0.0366667 0.00166667 0
0.0333333 0.00166667 0
0.03 0.00166667 0
0.0266667 0.00166667 0
0.0233333 0.00166667 0
0.02 0.00166667 0
0.0166667 0.00166667 0
0.0133333 0.00166667 0
0.01 0.00166667 0
0.00666667 0.00166667 0
0.00333333 0.00166667 0
0 0.00166667 0
0.1 -0.00166667 0
0.0966667 -0.00166667 0
0.0933333 -0.00166667 0
0.09 -0.00166667 0
0.0866667 -0.00166667 0
0.0833333 -0.00166667 0
0.08 -0.00166667 0
0.0766667 -0.00166667 0
0.0733333 -0.00166667 0
0.07 -0.00166667 0
0.0666667 -0.00166667 0
0.0633333 -0.00166667 0
0.06 -0.00166667 0
0.0566667 -0.00166667 0
0.0533333 -0.00166667 0
0.05 -0.00166667 0
0.0466667 -0.00166667 0
0.0433333 -0.00166667 0
0.04 -0.00166667 0
0.0366667 -0.00166667 0
0.0333333 -0.00166667 0
0.03 -0.00166667 0
0.0266667 -0.00166667 0
0.0233333 -0.00166667 0
0.02 -0.00166667 0
0.0166667 -0.00166667 0
0.0133333 -0.00166667 0
0.01 -0.00166667 0
0.00666667 -0.00166667 0
0.00333333 -0.00166667 0
0 -0.00166667 0
0.1 -0.005 0
0.0966667 -0.005 0
0.0933333 -0.005 0
0.09 -0.005 0
0.0866667 -0.005 0
0.0833333 -0.005 0
0.08 -0.005 0
0.0766667 -0.005 0
0.0733333 -0.005 0
0.07 -0.005 0
0.0666667 -0.005 0
0.0633333 -0.005 0
0.06 -0.005 0
0.0566667 -0.005 0
0.0533333 -0.005 0
0.05 -0.005 0
0.0466667 -0.005 0
0.0433333 -0.005 0
0.04 -0.005 0
0.0366667 -0.005 0
0.0333333 -0.005 0
0.03 -0.005 0
0.0266667 -0.005 0
0.0233333 -0.005 0
0.02 -0.005 0
0.0166667 -0.005 0
0.0133333 -0.005 0
0.01 -0.005 0
0.00666667 -0.005 0
0.00333333 -0.005 0
0 -0.005 0
0.1 -0.00833333 0
0.0966667 -0.00833333 0
0.0933333 -0.00833333 0
0.09 -0.00833333 0
0.0866667 -0.00833333 0
0.0833333 -0.00833333 0
0.08 -0.00833333 0
0.0766667 -0.00833333 0
0.0733333 -0.00833333 0
0.07 -0.00833333 0
0.0666667 -0.00833333 0
0.0633333 -0.00833333 0
0.06 -0.00833333 0
0.0566667 -0.00833333 0
0.0533333 -0.00833333 0
0.05 -0.00833333 0
0.0466667 -0.00833333 0
0.0433333 -0.00833333 0
0.04 -0.00833333 0
0.0366667 -0.00833333 0
0.0333333 -0.00833333 0
0.03 -0.00833333 0
0.0266667 -0.00833333 0
0.0233333 -0.00833333 0
0.02 -0.00833333 0
0.0166667 -0.00833333 0
0.0133333 -0.00833333 0
0.01 -0.00833333 0
0.00666667 -0.00833333 0
0.00333333 -0.00833333 0
0 -0.00833333 0
0.1 -0.0116667 0
0.0966667 -0.0116667 0
0.0933333 -0.0116667 0
0.09 -0.0116667 0
0.0866667 -0.0116667 0
0.0833333 -0.0116667 0
0.08 -0.0116667 0
0.0766667 -0.0116667 0
0.0733333 -0.0116667 0
0.07 -0.0116667 0
0.0666667 -0.0116667 0
0.0633333 -0.0116667 0
0.06 -0.0116667 0
0.0566667 -0.0116667 0
0.0533333 -0.0116667 0
0.05 -0.0116667 0
0.0466667 -0.0116667 0
0.0433333 -0.0116667 0
0.04 -0.0116667 0
0.0366667 -0.0116667 0
0.0333333 -0.0116667 0
0.03 -0.0116667 0
0.0266667 -0.0116667 0
0.0233333 -0.0116667 0
0.02 -0.0116667 0
0.0166667 -0.0116667 0
0.0133333 -0.0116667 0
0.01 -0.0116667 0
0.00666667 -0.0116667 0
0.00333333 -0.0116667 0
0 -0.0116667 0
0.1 -0.015 0
0.0966667 -0.015 0
0.0933333 -0.015 0
0.09 -0.015 0
0.0866667 -0.015 0
0.0833333 -0.015 0
0.08 -0.015 0
0.0766667 -0.015 0
0.0733333 -0.015 0
0.07 -0.015 0
0.0666667 -0.015 0
0.0633333 -0.015 0
0.06 -0.015 0
0.0566667 -0.015 0
0.0533333 -0.015 0
0.05 -0.015 0
0.0466667 -0.015 0
0.0433333 -0.015 0
0.04 -0.015 0
0.0366667 -0.015 0
0.0333333 -0.015 0
0.03 -0.015 0
0.0266667 -0.015 0
0.0233333 -0.015 0
0.02 -0.015 0
0.0166667 -0.015 0
0.0133333 -0.015 0
0.01 -0.015 0
0.00666667 -0.015 0
0.00333333 -0.015 0
0 -0.015 0
0.1 -0.0183333 0
0.0966667 -0.0183333 0
0.0933333 -0.0183333 0
0.09 -0.0183333 0
0.0866667 -0.0183333 0
0.0833333 -0.0183333 0
0.08 -0.0183333 0
0.0766667 -0.0183333 0
0.0733333 -0.0183333 0
0.07 -0.0183333 0
0.0666667 -0.0183333 0
0.0633333 -0.0183333 0
0.06 -0.0183333 0
0.0566667 -0.0183333 0
0.0533333 -0.0183333 0
0.05 -0.0183333 0
0.0466667 -0.0183333 0
0.0433333 -0.0183333 0
0.04 -0.0183333 0
0.0366667 -0.0183333 0
0.0333333 -0.0183333 0
0.03 -0.0183333 0
0.0266667 -0.0183333 0
0.0233333 -0.0183333 0
0.02 -0.0183333 0
0.0166667 -0.0183333 0
0.0133333 -0.0183333 0
0.01 -0.0183333 0
0.00666667 -0.0183333 0
0.00333333 -0.0183333 0
0 -0.0183333 0
0.1 -0.0216667 0
0.0966667 -0.0216667 0
0.0933333 -0.0216667 0
0.09 -0.0216667 0
0.0866667 -0.0216667 0
0.0833333 -0.0216667 0
0.08 -0.0216667 0
0.0766667 -0.0216667 0
0.0733333 -0.0216667 0
0.07 -0.0216667 0
0.0666667 -0.0216667 0
0.0633333 -0.0216667 0
0.06 -0.0216667 0
0.0566667 -0.0216667 0
0.0533333 -0.0216667 0
0.05 -0.0216667 0
0.0466667 -0.0216667 0
0.0433333 -0.0216667 0
0.04 -0.0216667 0
0.0366667 -0.0216667 0
0.0333333 -0.0216667 0
0.03 -0.0216667 0
0.0266667 -0.0216667 0
0.0233333 -0.0216667 0
0.02 -0.0216667 0
0.0166667 -0.0216667 0
0.0133333 -0.0216667 0
0.01 -0.0216667 0
0.00666667 -0.0216667 0
0.00333333 -0.0216667 0
0 -0.0216667 0
0.1 -0.025 0
0.0966667 -0.025 0
0.0933333 -0.025 0
0.09 -0.025 0
0.0866667 -0.025 0
0.0833333 -0.025 0
0.08 -0.025 0
0.0766667 -0.025 0
0.0733333 -0.025 0
0.07 -0.025 0
0.0666667 -0.025 0
0.0633333 -0.025 0
0.06 -0.025 0
0.0566667 -0.025 0
0.0533333 -0.025 0
0.05 -0.025 0
0.0466667 -0.025 0
0.0433333 -0.025 0
0.04 -0.025 0
0.0366667 -0.025 0
0.0333333 -0.025 0
0.03 -0.025 0
0.0266667 -0.025 0
0.0233333 -0.025 0
0.02 -0.025 0
0.0166667 -0.025 0
0.0133333 -0.025 0
0.01 -0.025 0
0.00666667 -0.025 0
0.00333333 -0.025 0
0 -0.025 0
0.1 -0.0283333 0
0.0966667 -0.0283333 0
0.0933333 -0.0283333 0
0.09 -0.0283333 0
0.0866667 -0.0283333 0
0.0833333 -0.0283333 0
0.08 -0.0283333 0
0.0766667 -0.0283333 0
0.0733333 -0.0283333 0
0.07 -0.0283333 0
0.0666667 -0.0283333 0
0.0633333 -0.0283333 0
0.06 -0.0283333 0
0.0566667 -0.0283333 0
0.0533333 -0.0283333 0
0.05 -0.0283333 0
0.0466667 -0.0283333 0
0.0433333 -0.0283333 0
0.04 -0.0283333 0
0.0366667 -0.0283333 0
0.0333333 -0.0283333 0
0.03 -0.0283333 0
0.0266667 -0.0283333 0
0.0233333 -0.0283333 0
0.02 -0.0283333 0
0.0166667 -0.0283333 0
0.0133333 -0.0283333 0
0.01 -0.0283333 0
0.00666667 -0.0283333 0
0.00333333 -0.0283333 0
0 -0.0283333 0
0.1 -0.0316667 0
0.0966667 -0.0316667 0
0.0933333 -0.0316667 0
0.09 -0.0316667 0
0.0866667 -0.0316667 0
0.0833333 -0.0316667 0
0.08 -0.0316667 0
0.0766667 -0.0316667 0
0.0733333 -0.0316667 0
0.07 -0.0316667 0
0.0666667 -0.0316667 0
0.0633333 -0.0316667 0
0.06 -0.0316667 0
0.0566667 -0.0316667 0
0.0533333 -0.0316667 0
0.05 -0.0316667 0
0.0466667 -0.0316667 0
0.0433333 -0.0316667 0
0.04 -0.0316667 0
0.0366667 -0.0316667 0
0.0333333 -0.0316667 0
0.03 -0.0316667 0
0.0266667 -0.0316667 0
0.0233333 -0.0316667 0
0.02 -0.0316667 0
0.0166667 -0.0316667 0
0.0133333 -0.0316667 0
0.01 -0.0316667 0
0.00666667 -0.0316667 0
0.00333333 -0.0316667 0
0 -0.0316667 0
0.1 -0.035 0
0.0966667 -0.035 0
0.0933333 -0.035 0
0.09 -0.035 0
0.0866667 -0.035 0
0.0833333 -0.035 0
0.08 -0.035 0
0.0766667 -0.035 0
0.0733333 -0.035 0
0.07 -0.035 0
0.0666667 -0.035 0
0.0633333 -0.035 0
0.06 -0.035 0
0.0566667 -0.035 0
0.0533333 -0.035 0
0.05 -0.035 0
0.0466667 -0.035 0
0.0433333 -0.035 0
0.04 -0.035 0
0.0366667 -0.035 0
0.0333333 -0.035 0
0.03 -0.035 0
0.0266667 -0.035 0
0.0233333 -0.035 0
0.02 -0.035 0
0.0166667 -0.035 0
0.0133333 -0.035 0
0.01 -0.035 0
0.00666667 -0.035 0
0.00333333 -0.035 0
0 -0.035 0
0.1 -0.0383333 0
0.0966667 -0.0383333 0
0.0933333 -0.0383333 0
0.09 -0.0383333 0
0.0866667 -0.0383333 0
0.0833333 -0.0383333 0
0.08 -0.0383333 0
0.0766667 -0.0383333 0
0.0733333 -0.0383333 0
0.07 -0.0383333 0
0.0666667 -0.0383333 0
0.0633333 -0.0383333 0
0.06 -0.0383333 0
0.0566667 -0.0383333 0
0.0533333 -0.0383333 0
0.05 -0.0383333 0
0.0466667 -0.0383333 0
0.0433333 -0.0383333 0
0.04 -0.0383333 0
0.0366667 -0.0383333 0
0.0333333 -0.0383333 0
0.03 -0.0383333 0
0.0266667 -0.0383333 0
0.0233333 -0.0383333 0
0.02 -0.0383333 0
0.0166667 -0.0383333 0
0.0133333 -0.0383333 0
0.01 -0.0383333 0
0.00666667 -0.0383333 0
0.00333333 -0.0383333 0
0 -0.0383333 0
0.1 -0.0416667 0
0.0966667 -0.0416667 0
0.0933333 -0.0416667 0
0.09 -0.0416667 0
0.0866667 -0.0416667 0
0.0833333 -0.0416667 0
0.08 -0.0416667 0
0.0766667 -0.0416667 0
0.0733333 -0.0416667 0
0.07 -0.0416667 0
0.0666667 -0.0416667 0
0.0633333 -0.0416667 0
0.06 -0.0416667 0
0.0566667 -0.0416667 0
0.0533333 -0.0416667 0
0.05 -0.0416667 0
0.0466667 -0.0416667 0
0.0433333 -0.0416667 0
0.04 -0.0416667 0
0.0366667 -0.0416667 0
0.0333333 -0.0416667 0
0.03 -0.0416667 0
0.0266667 -0.0416667 0
0.0233333 -0.0416667 0
0.02 -0.0416667 0
0.0166667 -0.0416667 0
0.0133333 -0.0416667 0
0.01 -0.0416667 0
0.00666667 -0.0416667 0
0.00333333 -0.0416667 0
0 -0.0416667 0
0.1 -0.045 0
0.0966667 -0.045 0
0.0933333 -0.045 0
0.09 -0.045 0
0.0866667 -0.045 0
0.0833333 -0.045 0
0.08 -0.045 0
0.0766667 -0.045 0
0.0733333 -0.045 0
0.07 -0.045 0
0.0666667 -0.045 0
0.0633333 -0.045 0
0.06 -0.045 0
0.0566667 -0.045 0
0.0533333 -0.045 0
0.05 -0.045 0
0.0466667 -0.045 0
0.0433333 -0.045 0
0.04 -0.045 0
0.0366667 -0.045 0
0.0333333 -0.045 0
0.03 -0.045 0
0.0266667 -0.045 0
0.0233333 -0.045 0
0.02 -0.045 0
0.0166667 -0.045 0
0.0133333 -0.045 0
0.01 -0.045 0
0.00666667 -0.045 0
0.00333333 -0.045 0
0 -0.045 0
0.1 -0.0483333 0
0.0966667 -0.0483333 0
0.0933333 -0.0483333 0
0.09 -0.0483333 0
0.0866667 -0.0483333 0
[...]
POINT_DATA 961
SCALARS Temp float 1
LOOKUP_TABLE default
526.664225
500.894195
477.488402
456.467063
437.804819
421.435287
407.257271
395.143035
384.946924
376.514785
369.692785
364.335825
360.314911
357.523252
355.881112
355.339278
355.881113
357.523253
360.314916
364.335831
369.692780
376.514792
384.946937
395.143040
407.257292
421.435286
437.804838
456.467066
477.488428
500.894262
526.664277
500.894234
474.137880
449.836173
428.010119
408.633386
391.637061
376.916091
364.337866
353.751172
344.995974
337.912564
332.350304
328.175274
325.276605
323.571513
323.008906
323.571513
325.276605
328.175279
332.350311
337.912558
344.995980
353.751186
364.337870
376.916112
391.637060
408.633405
428.010121
449.836199
474.137937
500.894265
477.488408
449.836148
424.720494
402.163169
382.136985
364.570757
349.355955
336.355575
325.413391
316.364056
309.042559
303.293256
298.977777
295.981564
294.219081
293.637535
294.219081
295.981564
298.977782
303.293263
309.042553
316.364063
325.413406
336.355579
349.355976
364.570755
382.137005
402.163169
424.720516
449.836199
477.488430
456.467049
428.010073
402.163149
378.948654
358.338648
340.259929
324.600879
311.220583
299.958346
290.644087
283.108064
277.190166
272.748049
269.663860
267.849607
267.250975
267.849607
269.663861
272.748053
277.190173
283.108058
290.644094
299.958361
311.220587
324.600900
340.259926
358.338666
378.948651
402.163167
428.010119
456.467066
437.804826
408.633361
382.136988
358.338672
337.209823
318.675476
302.621302
288.902948
277.355790
267.805577
260.078401
254.010214
249.455167
246.292504
244.432061
243.818184
244.432061
246.292505
249.455172
254.010221
260.078395
267.805584
277.355804
288.902951
302.621322
318.675472
337.209839
358.338666
382.137003
408.633404
437.804839
421.435281
391.637021
364.570745
340.259939
318.675461
299.740825
283.339354
269.323715
257.525871
247.767950
239.872419
233.671807
229.017213
225.785353
223.884170
223.256845
223.884170
225.785353
229.017218
233.671814
239.872413
247.767956
257.525884
269.323717
283.339374
299.740819
318.675476
340.259931
364.570758
391.637063
421.435290
407.257284
376.916071
349.355963
324.600910
302.621308
283.339376
266.636432
252.362595
240.346905
230.408385
222.366395
216.050522
211.309245
208.017109
206.080431
205.441387
206.080431
208.017109
211.309250
216.050529
222.366388
230.408391
240.346918
252.362597
266.636452
283.339369
302.621322
324.600900
349.355974
376.916110
407.257292
395.143037
364.337833
336.355571
311.220602
288.902941
269.323724
252.362581
237.867482
225.665001
215.571536
207.403820
200.988951
196.173190
192.829240
190.862041
190.212920
190.862042
192.829240
196.173195
200.988958
207.403812
215.571542
225.665014
237.867483
252.362600
269.323716
288.902954
311.220590
336.355581
364.337872
395.143043
384.946936
353.751149
325.413398
299.958376
277.355794
257.525892
240.346903
225.665013
213.304745
203.080318
194.806272
188.307635
183.428817
180.040985
178.047933
177.390274
178.047933
180.040986
183.428822
188.307642
194.806265
203.080324
213.304759
225.665013
240.346921
257.525883
277.355807
299.958364
325.413407
353.751187
384.946940
376.514786
344.995939
316.364052
290.644106
267.805570
247.767959
230.408371
215.571536
203.080305
192.747112
184.384707
177.816421
172.885150
169.460803
167.446230
166.781463
167.446230
169.460803
172.885155
177.816428
184.384699
192.747118
203.080318
215.571536
230.408389
247.767949
267.805581
290.644092
316.364059
344.995977
376.514790
369.692779
337.912522
309.042547
283.108075
260.078386
239.872420
222.366372
207.403811
194.806251
184.384699
175.950473
169.325545
164.351596
160.897528
158.865433
158.194879
158.865433
160.897528
164.351601
169.325551
175.950465
184.384704
194.806264
207.403811
222.366390
239.872410
260.078397
283.108061
309.042554
337.912559
369.692782
364.335828
332.350271
303.293254
277.190188
254.010210
233.671819
216.050510
200.988953
188.307625
177.816424
169.325556
162.655935
157.648298
154.170760
152.124827
151.449701
152.124827
154.170760
157.648303
162.655941
169.325548
177.816429
188.307637
200.988953
216.050528
233.671808
254.010220
277.190173
303.293261
332.350308
364.335831
360.314914
328.175241
298.977774
272.748069
249.455161
229.017224
211.309233
196.173191
183.428806
172.885152
164.351607
157.648297
152.615258
149.120017
147.063644
146.385068
147.063644
149.120017
152.615262
157.648304
164.351598
172.885157
183.428818
196.173191
211.309250
229.017213
249.455172
272.748054
298.977780
328.175277
360.314916
357.523252
325.276568
295.981557
269.663877
246.292495
225.785360
208.017092
192.829237
180.040970
169.460801
160.897534
154.170755
149.120013
145.612434
143.548782
142.867801
143.548782
145.612434
149.120018
154.170762
160.897526
169.460806
180.040983
192.829237
208.017110
225.785349
246.292505
269.663862
295.981563
325.276604
357.523254
355.881112
323.571477
294.219075
267.849624
244.432052
223.884178
206.080415
190.862040
178.047919
167.446229
158.865441
152.124823
147.063641
143.548783
141.480838
140.798438
141.480838
143.548783
147.063646
152.124830
158.865432
167.446234
178.047931
190.862039
206.080432
223.884167
244.432063
267.849609
294.219081
323.571513
355.881115
355.339278
323.008870
293.637530
267.250993
243.818175
223.256854
205.441372
190.212919
177.390260
166.781462
158.194887
151.449698
146.385066
142.867803
140.798439
140.115570
140.798439
142.867803
146.385071
151.449704
158.194879
166.781468
177.390273
190.212919
205.441390
223.256843
243.818186
267.250978
293.637536
323.008907
355.339280
355.881112
323.571477
294.219075
267.849624
244.432052
223.884178
206.080415
190.862040
178.047919
167.446229
158.865441
152.124824
147.063641
143.548783
141.480838
140.798438
141.480838
143.548783
147.063646
152.124830
158.865433
167.446234
178.047932
190.862040
206.080433
223.884168
244.432063
267.849610
294.219082
323.571514
355.881115
357.523252
325.276568
295.981557
269.663877
246.292495
225.785360
208.017092
192.829237
180.040971
169.460801
160.897535
154.170756
149.120014
145.612434
143.548783
142.867802
143.548783
145.612434
149.120019
154.170763
160.897527
169.460807
180.040984
192.829238
208.017111
225.785350
246.292507
269.663863
295.981565
325.276605
357.523255
360.314914
328.175241
298.977774
272.748069
249.455161
229.017224
211.309233
196.173192
183.428806
172.885153
164.351608
157.648298
152.615258
149.120018
147.063645
146.385069
147.063645
149.120018
152.615264
157.648305
164.351600
172.885159
183.428820
196.173193
211.309252
229.017215
249.455174
272.748056
298.977783
328.175279
360.314918
364.335828
332.350271
303.293254
277.190188
254.010210
233.671820
216.050510
200.988954
188.307625
177.816425
169.325557
162.655936
157.648300
154.170762
152.124829
151.449703
152.124829
154.170762
157.648305
162.655944
169.325550
177.816432
188.307640
200.988956
216.050531
233.671812
254.010224
277.190176
303.293264
332.350311
364.335834
369.692782
337.912525
309.042550
283.108079
260.078390
239.872425
222.366377
207.403816
194.806256
184.384704
175.950479
169.325551
164.351603
160.897534
158.865440
158.194885
158.865440
160.897535
164.351608
169.325559
175.950472
184.384712
194.806272
207.403819
222.366398
239.872418
260.078405
283.108069
309.042562
337.912567
369.692790
376.514781
344.995934
316.364047
290.644101
267.805565
247.767954
230.408366
215.571532
203.080301
192.747108
184.384704
177.816418
172.885147
169.460800
167.446227
166.781460
167.446227
169.460801
172.885153
177.816426
184.384698
192.747116
203.080317
215.571536
230.408389
247.767949
267.805582
290.644093
316.364060
344.995978
376.514791
384.946940
353.751153
325.413403
299.958381
277.355800
257.525898
240.346910
225.665020
213.304753
203.080326
194.806281
188.307644
183.428826
180.040995
178.047943
177.390284
178.047943
180.040996
183.428832
188.307652
194.806276
203.080335
213.304770
225.665025
240.346933
257.525895
277.355819
299.958376
325.413419
353.751199
384.946952
395.143029
364.337825
336.355563
311.220594
288.902933
269.323717
252.362575
237.867476
225.664995
215.571531
207.403815
200.988946
196.173185
192.829235
190.862037
190.212917
190.862038
192.829236
196.173192
200.988955
207.403810
215.571541
225.665013
237.867483
252.362600
269.323716
288.902955
311.220592
336.355583
364.337874
395.143045
407.257293
376.916080
349.355973
324.600921
302.621320
283.339389
266.636446
252.362609
240.346920
230.408401
222.366412
216.050539
211.309263
208.017127
206.080449
205.441406
206.080450
208.017128
211.309270
216.050549
222.366408
230.408412
240.346939
252.362618
266.636474
283.339391
302.621345
324.600923
349.355998
376.916133
407.257314
421.435277
391.637018
364.570742
340.259936
318.675459
299.740825
283.339354
269.323716
257.525873
247.767952
239.872423
233.671811
229.017217
225.785357
223.884175
223.256850
223.884176
225.785359
229.017224
233.671821
239.872420
247.767964
257.525893
269.323726
283.339384
299.740830
318.675488
340.259943
364.570771
391.637076
421.435304
437.804806
408.633340
382.136968
358.338652
337.209804
318.675459
302.621285
288.902932
277.355775
267.805563
260.078387
254.010201
249.455154
246.292492
244.432048
243.818172
244.432049
246.292493
249.455161
254.010211
260.078385
267.805575
277.355796
288.902944
302.621317
318.675468
337.209837
358.338665
382.137004
408.633406
437.804841
456.467047
428.010071
402.163149
378.948655
358.338651
340.259935
324.600887
311.220592
299.958356
290.644098
283.108076
277.190179
272.748061
269.663874
267.849620
267.250989
267.849621
269.663876
272.748069
277.190189
283.108074
290.644111
299.958378
311.220605
324.600920
340.259947
358.338688
378.948675
402.163194
428.010147
456.467093
477.488382
449.836122
424.720470
402.163147
382.136966
364.570740
349.355939
336.355561
325.413378
316.364043
309.042547
303.293245
298.977766
295.981553
294.219071
293.637525
294.219072
295.981555
298.977773
303.293255
309.042546
316.364057
325.413400
336.355575
349.355974
364.570755
382.137007
402.163174
424.720525
449.836212
477.488445
500.894231
474.137880
449.836179
428.010130
408.633401
391.637079
376.916112
364.337888
353.751196
344.995998
337.912589
332.350330
328.175301
325.276632
323.571541
323.008935
323.571542
325.276634
328.175309
332.350341
337.912589
344.996012
353.751218
364.337903
376.916146
391.637096
408.633443
428.010161
449.836244
474.137989
500.894325
526.664182
500.894161
477.488382
456.467048
437.804808
421.435278
407.257265
395.143030
384.946920
376.514782
369.692783
364.335823
360.314910
357.523252
355.881112
355.339278
355.881113
357.523254
360.314917
364.335833
369.692782
376.514795
384.946942
395.143045
407.257299
421.435295
437.804850
456.467081
477.488449
500.894293
526.664327
