# vtk DataFile Version 2.0
Unstructured Grid Example
ASCII
DATASET UNSTRUCTURED_GRID

POINTS 961 float
0.1 0.005 0
0.0966667 0.005 0
0.0933333 0.005 0
0.09 0.005 0
0.0866667 0.005 0
0.0833333 0.005 0
0.08 0.005 0
0.0766667 0.005 0
0.0733333 0.005 0
0.07 0.005 0
0.0666667 0.005 0
0.0633333 0.005 0
0.06 0.005 0
0.0566667 0.005 0
0.0533333 0.005 0
0.05 0.005 0
0.0466667 0.005 0
0.0433333 0.005 0
0.04 0.005 0
0.0366667 0.005 0
0.0333333 0.005 0
0.03 0.005 0
0.0266667 0.005 0
0.0233333 0.005 0
0.02 0.005 0
0.0166667 0.005 0
0.0133333 0.005 0
0.01 0.005 0
0.00666667 0.005 0
0.00333333 0.005 0
0 0.005 0
0.1 0.00166667 0
0.0966667 0.00166667 0
0.0933333 0.00166667 0
0.09 0.00166667 0
0.0866667 0.00166667 0
0.0833333 0.00166667 0
0.08 0.00166667 0
0.0766667 0.00166667 0
0.0733333 0.00166667 0
0.07 0.00166667 0
0.0666667 0.00166667 0
0.0633333 0.00166667 0
0.06 0.00166667 0
0.0566667 0.00166667 0
0.0533333 0.00166667 0
0.05 0.00166667 0
0.0466667 0.00166667 0
0.0433333 0.00166667 0
0.04 0.00166667 0
0.0366667 0.00166667 0
0.0333333 0.00166667 0
0.03 0.00166667 0
0.0266667 0.00166667 0
0.0233333 0.00166667 0
0.02 0.00166667 0
0.0166667 0.00166667 0
0.0133333 0.00166667 0
0.01 0.00166667 0
0.00666667 0.00166667 0
0.00333333 0.00166667 0
0 0.00166667 0
0.1 -0.00166667 0
0.0966667 -0.00166667 0
0.0933333 -0.00166667 0
0.09 -0.00166667 0
0.0866667 -0.00166667 0
0.0833333 -0.00166667 0
0.08 -0.00166667 0
0.0766667 -0.00166667 0
0.0733333 -0.00166667 0
0.07 -0.00166667 0
0.0666667 -0.00166667 0
0.0633333 -0.00166667 0
0.06 -0.00166667 0
0.0566667 -0.00166667 0
0.0533333 -0.00166667 0
0.05 -0.00166667 0
0.0466667 -0.00166667 0
0.0433333 -0.00166667 0
0.04 -0.00166667 0
0.0366667 -0.00166667 0
0.0333333 -0.00166667 0
0.03 -0.00166667 0
0.0266667 -0.00166667 0
0.0233333 -0.00166667 0
0.02 -0.00166667 0
0.0166667 -0.00166667 0
0.0133333 -0.00166667 0
0.01 -0.00166667 0
0.00666667 -0.00166667 0
0.00333333 -0.00166667 0
0 -0.00166667 0
0.1 -0.005 0
0.0966667 -0.005 0
0.0933333 -0.005 0
0.09 -0.005 0
0.0866667 -0.005 0
0.0833333 -0.005 0
0.08 -0.005 0
0.0766667 -0.005 0
0.0733333 -0.005 0
0.07 -0.005 0
0.0666667 -0.005 0
0.0633333 -0.005 0
0.06 -0.005 0
0.0566667 -0.005 0
0.0533333 -0.005 0
0.05 -0.005 0
0.0466667 -0.005 0
0.0433333 -0.005 0
0.04 -0.005 0
0.0366667 -0.005 0
0.0333333 -0.005 0
0.03 -0.005 0
0.0266667 -0.005 0
0.0233333 -0.005 0
0.02 -0.005 0
0.0166667 -0.005 0
0.0133333 -0.005 0
0.01 -0.005 0
0.00666667 -0.005 0
0.00333333 -0.005 0
0 -0.005 0
0.1 -0.00833333 0
0.0966667 -0.00833333 0
0.0933333 -0.00833333 0
0.09 -0.00833333 0
0.0866667 -0.00833333 0
0.0833333 -0.00833333 0
0.08 -0.00833333 0
0.0766667 -0.00833333 0
0.0733333 -0.00833333 0
0.07 -0.00833333 0
0.0666667 -0.00833333 0
0.0633333 -0.00833333 0
0.06 -0.00833333 0
0.0566667 -0.00833333 0
0.0533333 -0.00833333 0
0.05 -0.00833333 0
0.0466667 -0.00833333 0
0.0433333 -0.00833333 0
0.04 -0.00833333 0
0.0366667 -0.00833333 0
0.0333333 -0.00833333 0
0.03 -0.00833333 0
0.0266667 -0.00833333 0
0.0233333 -0.00833333 0
0.02 -0.00833333 0
0.0166667 -0.00833333 0
0.0133333 -0.00833333 0
0.01 -0.00833333 0
0.00666667 -0.00833333 0
0.00333333 -0.00833333 0
0 -0.00833333 0
0.1 -0.0116667 0
0.0966667 -0.0116667 0
0.0933333 -0.0116667 0
0.09 -0.0116667 0
0.0866667 -0.0116667 0
0.0833333 -0.0116667 0
0.08 -0.0116667 0
0.0766667 -0.0116667 0
0.0733333 -0.0116667 0
0.07 -0.0116667 0
0.0666667 -0.0116667 0
0.0633333 -0.0116667 0
0.06 -0.0116667 0
0.0566667 -0.0116667 0
0.0533333 -0.0116667 0
0.05 -0.0116667 0
0.0466667 -0.0116667 0
0.0433333 -0.0116667 0
0.04 -0.0116667 0
0.0366667 -0.0116667 0
0.0333333 -0.0116667 0
0.03 -0.0116667 0
0.0266667 -0.0116667 0
0.0233333 -0.0116667 0
0.02 -0.0116667 0
0.0166667 -0.0116667 0
0.0133333 -0.0116667 0
0.01 -0.0116667 0
0.00666667 -0.0116667 0
0.00333333 -0.0116667 0
0 -0.0116667 0
0.1 -0.015 0
0.0966667 -0.015 0
0.0933333 -0.015 0
0.09 -0.015 0
0.0866667 -0.015 0
0.0833333 -0.015 0
0.08 -0.015 0
0.0766667 -0.015 0
0.0733333 -0.015 0
0.07 -0.015 0
0.0666667 -0.015 0
0.0633333 -0.015 0
0.06 -0.015 0
0.0566667 -0.015 0
0.0533333 -0.015 0
0.05 -0.015 0
0.0466667 -0.015 0
0.0433333 -0.015 0
0.04 -0.015 0
0.0366667 -0.015 0
0.0333333 -0.015 0
0.03 -0.015 0
0.0266667 -0.015 0
0.0233333 -0.015 0
0.02 -0.015 0
0.0166667 -0.015 0
0.0133333 -0.015 0
0.01 -0.015 0
0.00666667 -0.015 0
0.00333333 -0.015 0
0 -0.015 0
0.1 -0.0183333 0
0.0966667 -0.0183333 0
0.0933333 -0.0183333 0
0.09 -0.0183333 0
0.0866667 -0.0183333 0
0.0833333 -0.0183333 0
0.08 -0.0183333 0
0.0766667 -0.0183333 0
0.0733333 -0.0183333 0
0.07 -0.0183333 0
0.0666667 -0.0183333 0
0.0633333 -0.0183333 0
0.06 -0.0183333 0
0.0566667 -0.0183333 0
0.0533333 -0.0183333 0
0.05 -0.0183333 0
0.0466667 -0.0183333 0
0.0433333 -0.0183333 0
0.04 -0.0183333 0
0.0366667 -0.0183333 0
0.0333333 -0.0183333 0
0.03 -0.0183333 0
0.0266667 -0.0183333 0
0.0233333 -0.0183333 0
0.02 -0.0183333 0
0.0166667 -0.0183333 0
0.0133333 -0.0183333 0
0.01 -0.0183333 0
0.00666667 -0.0183333 0
0.00333333 -0.0183333 0
0 -0.0183333 0
0.1 -0.0216667 0
0.0966667 -0.0216667 0
0.0933333 -0.0216667 0
0.09 -0.0216667 0
0.0866667 -0.0216667 0
0.0833333 -0.0216667 0
0.08 -0.0216667 0
0.0766667 -0.0216667 0
0.0733333 -0.0216667 0
0.07 -0.0216667 0
0.0666667 -0.0216667 0
0.0633333 -0.0216667 0
0.06 -0.0216667 0
0.0566667 -0.0216667 0
0.0533333 -0.0216667 0
0.05 -0.0216667 0
0.0466667 -0.0216667 0
0.0433333 -0.0216667 0
0.04 -0.0216667 0
0.0366667 -0.0216667 0
0.0333333 -0.0216667 0
0.03 -0.0216667 0
0.0266667 -0.0216667 0
0.0233333 -0.0216667 0
0.02 -0.0216667 0
0.0166667 -0.0216667 0
0.0133333 -0.0216667 0
0.01 -0.0216667 0
0.00666667 -0.0216667 0
0.00333333 -0.0216667 0
0 -0.0216667 0
0.1 -0.025 0
0.0966667 -0.025 0
0.0933333 -0.025 0
0.09 -0.025 0
0.0866667 -0.025 0
0.0833333 -0.025 0
0.08 -0.025 0
0.0766667 -0.025 0
0.0733333 -0.025 0
0.07 -0.025 0
0.0666667 -0.025 0
0.0633333 -0.025 0
0.06 -0.025 0
0.0566667 -0.025 0
0.0533333 -0.025 0
0.05 -0.025 0
0.0466667 -0.025 0
0.0433333 -0.025 0
0.04 -0.025 0
0.0366667 -0.025 0
0.0333333 -0.025 0
0.03 -0.025 0
0.0266667 -0.025 0
0.0233333 -0.025 0
0.02 -0.025 0
0.0166667 -0.025 0
0.0133333 -0.025 0
0.01 -0.025 0
0.00666667 -0.025 0
0.00333333 -0.025 0
0 -0.025 0
0.1 -0.0283333 0
0.0966667 -0.0283333 0
0.0933333 -0.0283333 0
0.09 -0.0283333 0
0.0866667 -0.0283333 0
0.0833333 -0.0283333 0
0.08 -0.0283333 0
0.0766667 -0.0283333 0
0.0733333 -0.0283333 0
0.07 -0.0283333 0
0.0666667 -0.0283333 0
0.0633333 -0.0283333 0
0.06 -0.0283333 0
0.0566667 -0.0283333 0
0.0533333 -0.0283333 0
0.05 -0.0283333 0
0.0466667 -0.0283333 0
0.0433333 -0.0283333 0
0.04 -0.0283333 0
0.0366667 -0.0283333 0
0.0333333 -0.0283333 0
0.03 -0.0283333 0
0.0266667 -0.0283333 0
0.0233333 -0.0283333 0
0.02 -0.0283333 0
0.0166667 -0.0283333 0
0.0133333 -0.0283333 0
0.01 -0.0283333 0
0.00666667 -0.0283333 0
0.00333333 -0.0283333 0
0 -0.0283333 0
0.1 -0.0316667 0
0.0966667 -0.0316667 0
0.0933333 -0.0316667 0
0.09 -0.0316667 0
0.0866667 -0.0316667 0
0.0833333 -0.0316667 0
0.08 -0.0316667 0
0.0766667 -0.0316667 0
0.0733333 -0.0316667 0
0.07 -0.0316667 0
0.0666667 -0.0316667 0
0.0633333 -0.0316667 0
0.06 -0.0316667 0
0.0566667 -0.0316667 0
0.0533333 -0.0316667 0
0.05 -0.0316667 0
0.0466667 -0.0316667 0
0.0433333 -0.0316667 0
0.04 -0.0316667 0
0.0366667 -0.0316667 0
0.0333333 -0.0316667 0
0.03 -0.0316667 0
0.0266667 -0.0316667 0
0.0233333 -0.0316667 0
0.02 -0.0316667 0
0.0166667 -0.0316667 0
0.0133333 -0.0316667 0
0.01 -0.0316667 0
0.00666667 -0.0316667 0
0.00333333 -0.0316667 0
0 -0.0316667 0
0.1 -0.035 0
0.0966667 -0.035 0
0.0933333 -0.035 0
0.09 -0.035 0
0.0866667 -0.035 0
0.0833333 -0.035 0
0.08 -0.035 0
0.0766667 -0.035 0
0.0733333 -0.035 0
0.07 -0.035 0
0.0666667 -0.035 0
0.0633333 -0.035 0
0.06 -0.035 0
0.0566667 -0.035 0
0.0533333 -0.035 0
0.05 -0.035 0
0.0466667 -0.035 0
0.0433333 -0.035 0
0.04 -0.035 0
0.0366667 -0.035 0
0.0333333 -0.035 0
0.03 -0.035 0
0.0266667 -0.035 0
0.0233333 -0.035 0
0.02 -0.035 0
0.0166667 -0.035 0
0.0133333 -0.035 0
0.01 -0.035 0
0.00666667 -0.035 0
0.00333333 -0.035 0
0 -0.035 0
0.1 -0.0383333 0
0.0966667 -0.0383333 0
0.0933333 -0.0383333 0
0.09 -0.0383333 0
0.0866667 -0.0383333 0
0.0833333 -0.0383333 0
0.08 -0.0383333 0
0.0766667 -0.0383333 0
0.0733333 -0.0383333 0
0.07 -0.0383333 0
0.0666667 -0.0383333 0
0.0633333 -0.0383333 0
0.06 -0.0383333 0
0.0566667 -0.0383333 0
0.0533333 -0.0383333 0
0.05 -0.0383333 0
0.0466667 -0.0383333 0
0.0433333 -0.0383333 0
0.04 -0.0383333 0
0.0366667 -0.0383333 0
0.0333333 -0.0383333 0
0.03 -0.0383333 0
0.0266667 -0.0383333 0
0.0233333 -0.0383333 0
0.02 -0.0383333 0
0.0166667 -0.0383333 0
0.0133333 -0.0383333 0
0.01 -0.0383333 0
0.00666667 -0.0383333 0
0.00333333 -0.0383333 0
0 -0.0383333 0
0.1 -0.0416667 0
0.0966667 -0.0416667 0
0.0933333 -0.0416667 0
0.09 -0.0416667 0
0.0866667 -0.0416667 0
0.0833333 -0.0416667 0
0.08 -0.0416667 0
0.0766667 -0.0416667 0
0.0733333 -0.0416667 0
0.07 -0.0416667 0
0.0666667 -0.0416667 0
0.0633333 -0.0416667 0
0.06 -0.0416667 0
0.0566667 -0.0416667 0
0.0533333 -0.0416667 0
0.05 -0.0416667 0
0.0466667 -0.0416667 0
0.0433333 -0.0416667 0
0.04 -0.0416667 0
0.0366667 -0.0416667 0
0.0333333 -0.0416667 0
0.03 -0.0416667 0
0.0266667 -0.0416667 0
0.0233333 -0.0416667 0
0.02 -0.0416667 0
0.0166667 -0.0416667 0
0.0133333 -0.0416667 0
0.01 -0.0416667 0
0.00666667 -0.0416667 0
0.00333333 -0.0416667 0
0 -0.0416667 0
0.1 -0.045 0
0.0966667 -0.045 0
0.0933333 -0.045 0
0.09 -0.045 0
0.0866667 -0.045 0
0.0833333 -0.045 0
0.08 -0.045 0
0.0766667 -0.045 0
0.0733333 -0.045 0
0.07 -0.045 0
0.0666667 -0.045 0
0.0633333 -0.045 0
0.06 -0.045 0
0.0566667 -0.045 0
0.0533333 -0.045 0
0.05 -0.045 0
0.0466667 -0.045 0
0.0433333 -0.045 0
0.04 -0.045 0
0.0366667 -0.045 0
0.0333333 -0.045 0
0.03 -0.045 0
0.0266667 -0.045 0
0.0233333 -0.045 0
0.02 -0.045 0
0.0166667 -0.045 0
0.0133333 -0.045 0
0.01 -0.045 0
0.00666667 -0.045 0
0.00333333 -0.045 0
0 -0.045 0
0.1 -0.0483333 0
0.0966667 -0.0483333 0
0.0933333 -0.0483333 0
0.09 -0.0483333 0
0.0866667 -0.0483333 0
[...]
POINT_DATA 961
SCALARS Temp float 1
LOOKUP_TABLE default
1102.924212
1099.149828
1095.598232
1092.277257
1089.194235
1086.355989
1083.768778
1081.438327
1079.369774
1077.567699
1076.036076
1074.778287
1073.797115
1073.094727
1072.672671
1072.531883
1072.672671
1073.094727
1073.797117
1074.778289
1076.036076
1077.567701
1079.369778
1081.438329
1083.768782
1086.355990
1089.194239
1092.277258
1095.598237
1099.149840
1102.924221
1099.149834
1095.228698
1091.539011
1088.088914
1084.886021
1081.937422
1079.249618
1076.828558
1074.679578
1072.807437
1071.216263
1069.909571
1068.890250
1068.160552
1067.722087
1067.575824
1067.722087
1068.160552
1068.890252
1069.909573
1071.216263
1072.807439
1074.679582
1076.828560
1079.249623
1081.937423
1084.886026
1088.088915
1091.539016
1095.228708
1099.149840
1095.598233
1091.539007
1087.719381
1084.147783
1080.832095
1077.779656
1074.997197
1072.490875
1070.266215
1068.328143
1066.680934
1065.328224
1064.273006
1063.517611
1063.063704
1062.912291
1063.063704
1063.517611
1064.273008
1065.328226
1066.680934
1068.328146
1070.266219
1072.490876
1074.997202
1077.779657
1080.832099
1084.147784
1087.719386
1091.539016
1095.598237
1092.277255
1088.088907
1084.147779
1080.462570
1077.041411
1073.891876
1071.020907
1068.434860
1066.139435
1064.139714
1062.440107
1061.044368
1059.955584
1059.176160
1058.707815
1058.551585
1058.707815
1059.176160
1059.955586
1061.044370
1062.440107
1064.139716
1066.139439
1068.434862
1071.020912
1073.891876
1077.041416
1080.462571
1084.147784
1088.088915
1092.277259
1089.194236
1084.886017
1080.832095
1077.041415
1073.522343
1070.282668
1067.329532
1064.669472
1062.308352
1060.251399
1058.503150
1057.067465
1055.947520
1055.145789
1054.664040
1054.503338
1054.664040
1055.145789
1055.947522
1057.067467
1058.503150
1060.251401
1062.308356
1064.669474
1067.329537
1070.282668
1073.522347
1077.041416
1080.832099
1084.886026
1089.194239
1086.355988
1081.937416
1077.779654
1073.891877
1070.282665
1066.960007
1063.931228
1061.203031
1058.781432
1056.671791
1054.878761
1053.406302
1052.257670
1051.435402
1050.941313
1050.776496
1050.941313
1051.435403
1052.257671
1053.406304
1054.878761
1056.671793
1058.781436
1061.203033
1063.931233
1066.960007
1070.282669
1073.891877
1077.779658
1081.937424
1086.355991
1083.768780
1079.249615
1074.997198
1071.020912
1067.329533
1063.931232
1060.833500
1058.043193
1055.566464
1053.408795
1051.574946
1050.068964
1048.894182
1048.053195
1047.547858
1047.379288
1047.547858
1048.053196
1048.894184
1050.068966
1051.574945
1053.408797
1055.566468
1058.043195
1060.833505
1063.931232
1067.329537
1071.020912
1074.997202
1079.249623
1083.768783
1081.438327
1076.828553
1072.490874
1068.434863
1064.669471
1061.203033
1058.043191
1055.196938
1052.670551
1050.469620
1048.599001
1047.062824
1045.864489
1045.006639
1044.491170
1044.319220
1044.491170
1045.006640
1045.864490
1047.062827
1048.599000
1050.469622
1052.670555
1055.196940
1058.043196
1061.203033
1064.669475
1068.434863
1072.490877
1076.828560
1081.438330
1079.369777
1074.679575
1070.266217
1066.139440
1062.308354
1058.781436
1055.566464
1052.670553
1050.100088
1047.860757
1045.957502
1044.394523
1043.175280
1042.302463
1041.778001
1041.603051
1041.778001
1042.302464
1043.175281
1044.394525
1045.957501
1047.860759
1050.100092
1052.670555
1055.566469
1058.781436
1062.308357
1066.139440
1070.266220
1074.679583
1079.369779
1077.567699
1072.807431
1068.328142
1064.139717
1060.251398
1056.671792
1053.408792
1050.469620
1047.860754
1045.587970
1043.656282
1042.069955
1040.832497
1039.946642
1039.414345
1039.236781
1039.414345
1039.946643
1040.832499
1042.069957
1043.656282
1045.587973
1047.860758
1050.469621
1053.408797
1056.671792
1060.251401
1064.139716
1068.328145
1072.807439
1077.567701
1076.036075
1071.216256
1066.680931
1062.440109
1058.503147
1054.878761
1051.574941
1048.598999
1045.957497
1043.656280
1041.700427
1040.094255
1038.841317
1037.944380
1037.405423
1037.225638
1037.405423
1037.944380
1038.841319
1040.094257
1041.700426
1043.656283
1045.957501
1048.599001
1051.574946
1054.878761
1058.503151
1062.440108
1066.680935
1071.216264
1076.036077
1074.778288
1069.909566
1065.328224
1061.044372
1057.067464
1053.406304
1050.068962
1047.062825
1044.394521
1042.069955
1040.094257
1038.471788
1037.206137
1036.300099
1035.755674
1035.574066
1035.755674
1036.300100
1037.206139
1038.471791
1040.094257
1042.069958
1044.394525
1047.062826
1050.068967
1053.406303
1057.067468
1061.044371
1065.328227
1069.909573
1074.778290
1073.797116
1068.890245
1064.273006
1059.955588
1055.947519
1052.257672
1048.894180
1045.864489
1043.175277
1040.832498
1038.841319
1037.206137
1035.930569
1035.017432
1034.468741
1034.285709
1034.468741
1035.017432
1035.930571
1037.206139
1038.841318
1040.832500
1043.175281
1045.864490
1048.894185
1052.257671
1055.947523
1059.955587
1064.273009
1068.890252
1073.797118
1073.094726
1068.160546
1063.517609
1059.176162
1055.145787
1051.435403
1048.053191
1045.006638
1042.302460
1039.946642
1037.944381
1036.300098
1035.017431
1034.099212
1033.547467
1033.363417
1033.547467
1034.099212
1035.017433
1036.300101
1037.944380
1039.946644
1042.302464
1045.006640
1048.053197
1051.435403
1055.145790
1059.176162
1063.517612
1068.160553
1073.094728
1072.672671
1067.722080
1063.063703
1058.707817
1054.664038
1050.941314
1047.547854
1044.491169
1041.777997
1039.414344
1037.405424
1035.755673
1034.468740
1033.547467
1032.993887
1032.809225
1032.993888
1033.547468
1034.468742
1035.755676
1037.405424
1039.414347
1041.778002
1044.491171
1047.547860
1050.941314
1054.664042
1058.707817
1063.063706
1067.722088
1072.672673
1072.531882
1067.575818
1062.912289
1058.551587
1054.503336
1050.776497
1047.379285
1044.319220
1041.603048
1039.236781
1037.225640
1035.574064
1034.285708
1033.363417
1032.809225
1032.624359
1032.809225
1033.363417
1034.285710
1035.574067
1037.225639
1039.236784
1041.603052
1044.319221
1047.379290
1050.776497
1054.503340
1058.551587
1062.912292
1067.575826
1072.531885
1072.672671
1067.722080
1063.063703
1058.707817
1054.664038
1050.941314
1047.547854
1044.491169
1041.777997
1039.414344
1037.405424
1035.755673
1034.468740
1033.547467
1032.993888
1032.809225
1032.993888
1033.547468
1034.468742
1035.755676
1037.405424
1039.414347
1041.778002
1044.491171
1047.547860
1050.941314
1054.664042
1058.707817
1063.063706
1067.722089
1072.672673
1073.094726
1068.160546
1063.517609
1059.176162
1055.145786
1051.435403
1048.053191
1045.006638
1042.302460
1039.946642
1037.944381
1036.300098
1035.017431
1034.099212
1033.547467
1033.363417
1033.547468
1034.099213
1035.017433
1036.300101
1037.944380
1039.946644
1042.302465
1045.006640
1048.053197
1051.435403
1055.145791
1059.176162
1063.517613
1068.160554
1073.094729
1073.797115
1068.890245
1064.273006
1059.955588
1055.947519
1052.257672
1048.894180
1045.864489
1043.175277
1040.832498
1038.841319
1037.206137
1035.930569
1035.017432
1034.468741
1034.285710
1034.468742
1035.017433
1035.930571
1037.206140
1038.841319
1040.832501
1043.175282
1045.864491
1048.894186
1052.257672
1055.947524
1059.955588
1064.273009
1068.890253
1073.797119
1074.778288
1069.909566
1065.328224
1061.044372
1057.067464
1053.406304
1050.068962
1047.062825
1044.394521
1042.069956
1040.094258
1038.471788
1037.206137
1036.300100
1035.755675
1035.574066
1035.755675
1036.300100
1037.206140
1038.471791
1040.094257
1042.069959
1044.394526
1047.062827
1050.068968
1053.406304
1057.067469
1061.044372
1065.328228
1069.909574
1074.778291
1076.036075
1071.216257
1066.680932
1062.440109
1058.503148
1054.878762
1051.574942
1048.599000
1045.957498
1043.656282
1041.700429
1040.094256
1038.841318
1037.944381
1037.405425
1037.225640
1037.405425
1037.944382
1038.841320
1040.094259
1041.700428
1043.656285
1045.957503
1048.599003
1051.574948
1054.878763
1058.503153
1062.440110
1066.680937
1071.216266
1076.036079
1077.567698
1072.807430
1068.328141
1064.139715
1060.251396
1056.671791
1053.408791
1050.469618
1047.860753
1045.587969
1043.656282
1042.069954
1040.832497
1039.946642
1039.414344
1039.236781
1039.414344
1039.946642
1040.832499
1042.069957
1043.656281
1045.587973
1047.860758
1050.469621
1053.408798
1056.671793
1060.251402
1064.139717
1068.328146
1072.807439
1077.567702
1079.369777
1074.679576
1070.266218
1066.139441
1062.308355
1058.781438
1055.566465
1052.670555
1050.100089
1047.860758
1045.957503
1044.394525
1043.175282
1042.302465
1041.778003
1041.603053
1041.778003
1042.302466
1043.175284
1044.394528
1045.957503
1047.860762
1050.100094
1052.670558
1055.566472
1058.781439
1062.308360
1066.139443
1070.266223
1074.679586
1079.369782
1081.438325
1076.828551
1072.490872
1068.434861
1064.669469
1061.203031
1058.043189
1055.196937
1052.670549
1050.469618
1048.599000
1047.062823
1045.864487
1045.006638
1044.491169
1044.319220
1044.491170
1045.006639
1045.864490
1047.062827
1048.599000
1050.469622
1052.670555
1055.196940
1058.043196
1061.203034
1064.669476
1068.434863
1072.490878
1076.828561
1081.438330
1083.768781
1079.249617
1074.997200
1071.020914
1067.329535
1063.931234
1060.833502
1058.043196
1055.566467
1053.408798
1051.574949
1050.068967
1048.894186
1048.053199
1047.547862
1047.379292
1047.547862
1048.053200
1048.894188
1050.068970
1051.574949
1053.408802
1055.566473
1058.043199
1060.833509
1063.931237
1067.329542
1071.020917
1074.997206
1079.249628
1083.768787
1086.355987
1081.937415
1077.779653
1073.891876
1070.282665
1066.960006
1063.931227
1061.203031
1058.781432
1056.671791
1054.878762
1053.406302
1052.257670
1051.435403
1050.941314
1050.776497
1050.941315
1051.435404
1052.257673
1053.406305
1054.878762
1056.671795
1058.781438
1061.203035
1063.931235
1066.960010
1070.282672
1073.891880
1077.779661
1081.937427
1086.355994
1089.194232
1084.886014
1080.832092
1077.041411
1073.522339
1070.282664
1067.329529
1064.669469
1062.308350
1060.251396
1058.503148
1057.067463
1055.947518
1055.145786
1054.664037
1054.503336
1054.664038
1055.145787
1055.947520
1057.067466
1058.503148
1060.251400
1062.308356
1064.669473
1067.329537
1070.282668
1073.522347
1077.041416
1080.832100
1084.886026
1089.194240
1092.277254
1088.088906
1084.147779
1080.462570
1077.041411
1073.891876
1071.020908
1068.434861
1066.139436
1064.139715
1062.440109
1061.044370
1059.955586
1059.176162
1058.707817
1058.551587
1058.707818
1059.176163
1059.955589
1061.044373
1062.440110
1064.139719
1066.139442
1068.434865
1071.020916
1073.891880
1077.041420
1080.462575
1084.147788
1088.088920
1092.277263
1095.598228
1091.539003
1087.719377
1084.147779
1080.832091
1077.779653
1074.997194
1072.490872
1070.266213
1068.328141
1066.680932
1065.328222
1064.273004
1063.517609
1063.063703
1062.912289
1063.063703
1063.517610
1064.273007
1065.328225
1066.680933
1068.328145
1070.266219
1072.490876
1074.997202
1077.779658
1080.832100
1084.147785
1087.719388
1091.539019
1095.598240
1099.149833
1095.228698
1091.539011
1088.088915
1084.886023
1081.937425
1079.249621
1076.828561
1074.679582
1072.807440
1071.216267
1069.909575
1068.890254
1068.160556
1067.722091
1067.575829
1067.722092
1068.160557
1068.890256
1069.909578
1071.216268
1072.807444
1074.679587
1076.828565
1079.249629
1081.937429
1084.886032
1088.088922
1091.539023
1095.228716
1099.149850
1102.924205
1099.149823
1095.598228
1092.277254
1089.194232
1086.355987
1083.768776
1081.438326
1079.369773
1077.567698
1076.036076
1074.778287
1073.797115
1073.094726
1072.672671
1072.531883
1072.672672
1073.094727
1073.797117
1074.778290
1076.036076
1077.567702
1079.369779
1081.438330
1083.768784
1086.355992
1089.194241
1092.277261
1095.598241
1099.149845
1102.924229
