# vtk DataFile Version 2.0
Unstructured Grid Example
ASCII
DATASET UNSTRUCTURED_GRID

POINTS 961 float
0.1 0.005 0
0.0966667 0.005 0
0.0933333 0.005 0
0.09 0.005 0
0.0866667 0.005 0
0.0833333 0.005 0
0.08 0.005 0
0.0766667 0.005 0
0.0733333 0.005 0
0.07 0.005 0
0.0666667 0.005 0
0.0633333 0.005 0
0.06 0.005 0
0.0566667 0.005 0
0.0533333 0.005 0
0.05 0.005 0
0.0466667 0.005 0
0.0433333 0.005 0
0.04 0.005 0
0.0366667 0.005 0
0.0333333 0.005 0
0.03 0.005 0
0.0266667 0.005 0
0.0233333 0.005 0
0.02 0.005 0
0.0166667 0.005 0
0.0133333 0.005 0
0.01 0.005 0
0.00666667 0.005 0
0.00333333 0.005 0
0 0.005 0
0.1 0.00166667 0
0.0966667 0.00166667 0
0.0933333 0.00166667 0
0.09 0.00166667 0
0.0866667 0.00166667 0
0.0833333 0.00166667 0
0.08 0.00166667 0
0.0766667 0.00166667 0
0.0733333 0.00166667 0
0.07 0.00166667 0
0.0666667 0.00166667 0
0.0633333 0.00166667 0
0.06 0.00166667 0
0.0566667 0.00166667 0
0.0533333 0.00166667 0
0.05 0.00166667 0
0.0466667 0.00166667 0
0.0433333 0.00166667 0
0.04 0.00166667 0
0.0366667 0.00166667 0
0.0333333 0.00166667 0
0.03 0.00166667 0
0.0266667 0.00166667 0
0.0233333 0.00166667 0
0.02 0.00166667 0
0.0166667 0.00166667 0
0.0133333 0.00166667 0
0.01 0.00166667 0
0.00666667 0.00166667 0
0.00333333 0.00166667 0
0 0.00166667 0
0.1 -0.00166667 0
0.0966667 -0.00166667 0
0.0933333 -0.00166667 0
0.09 -0.00166667 0
0.0866667 -0.00166667 0
0.0833333 -0.00166667 0
0.08 -0.00166667 0
0.0766667 -0.00166667 0
0.0733333 -0.00166667 0
0.07 -0.00166667 0
0.0666667 -0.00166667 0
0.0633333 -0.00166667 0
0.06 -0.00166667 0
0.0566667 -0.00166667 0
0.0533333 -0.00166667 0
0.05 -0.00166667 0
0.0466667 -0.00166667 0
0.0433333 -0.00166667 0
0.04 -0.00166667 0
0.0366667 -0.00166667 0
0.0333333 -0.00166667 0
0.03 -0.00166667 0
0.0266667 -0.00166667 0
0.0233333 -0.00166667 0
0.02 -0.00166667 0
0.0166667 -0.00166667 0
0.0133333 -0.00166667 0
0.01 -0.00166667 0
0.00666667 -0.00166667 0
0.00333333 -0.00166667 0
0 -0.00166667 0
0.1 -0.005 0
0.0966667 -0.005 0
0.0933333 -0.005 0
0.09 -0.005 0
0.0866667 -0.005 0
0.0833333 -0.005 0
0.08 -0.005 0
0.0766667 -0.005 0
0.0733333 -0.005 0
0.07 -0.005 0
0.0666667 -0.005 0
0.0633333 -0.005 0
0.06 -0.005 0
0.0566667 -0.005 0
0.0533333 -0.005 0
0.05 -0.005 0
0.0466667 -0.005 0
0.0433333 -0.005 0
0.04 -0.005 0
0.0366667 -0.005 0
0.0333333 -0.005 0
0.03 -0.005 0
0.0266667 -0.005 0
0.0233333 -0.005 0
0.02 -0.005 0
0.0166667 -0.005 0
0.0133333 -0.005 0
0.01 -0.005 0
0.00666667 -0.005 0
0.00333333 -0.005 0
0 -0.005 0
0.1 -0.00833333 0
0.0966667 -0.00833333 0
0.0933333 -0.00833333 0
0.09 -0.00833333 0
0.0866667 -0.00833333 0
0.0833333 -0.00833333 0
0.08 -0.00833333 0
0.0766667 -0.00833333 0
0.0733333 -0.00833333 0
0.07 -0.00833333 0
0.0666667 -0.00833333 0
0.0633333 -0.00833333 0
0.06 -0.00833333 0
0.0566667 -0.00833333 0
0.0533333 -0.00833333 0
0.05 -0.00833333 0
0.0466667 -0.00833333 0
0.0433333 -0.00833333 0
0.04 -0.00833333 0
0.0366667 -0.00833333 0
0.0333333 -0.00833333 0
0.03 -0.00833333 0
0.0266667 -0.00833333 0
0.0233333 -0.00833333 0
0.02 -0.00833333 0
0.0166667 -0.00833333 0
0.0133333 -0.00833333 0
0.01 -0.00833333 0
0.00666667 -0.00833333 0
0.00333333 -0.00833333 0
0 -0.00833333 0
0.1 -0.0116667 0
0.0966667 -0.0116667 0
0.0933333 -0.0116667 0
0.09 -0.0116667 0
0.0866667 -0.0116667 0
0.0833333 -0.0116667 0
0.08 -0.0116667 0
0.0766667 -0.0116667 0
0.0733333 -0.0116667 0
0.07 -0.0116667 0
0.0666667 -0.0116667 0
0.0633333 -0.0116667 0
0.06 -0.0116667 0
0.0566667 -0.0116667 0
0.0533333 -0.0116667 0
0.05 -0.0116667 0
0.0466667 -0.0116667 0
0.0433333 -0.0116667 0
0.04 -0.0116667 0
0.0366667 -0.0116667 0
0.0333333 -0.0116667 0
0.03 -0.0116667 0
0.0266667 -0.0116667 0
0.0233333 -0.0116667 0
0.02 -0.0116667 0
0.0166667 -0.0116667 0
0.0133333 -0.0116667 0
0.01 -0.0116667 0
0.00666667 -0.0116667 0
0.00333333 -0.0116667 0
0 -0.0116667 0
0.1 -0.015 0
0.0966667 -0.015 0
0.0933333 -0.015 0
0.09 -0.015 0
0.0866667 -0.015 0
0.0833333 -0.015 0
0.08 -0.015 0
0.0766667 -0.015 0
0.0733333 -0.015 0
0.07 -0.015 0
0.0666667 -0.015 0
0.0633333 -0.015 0
0.06 -0.015 0
0.0566667 -0.015 0
0.0533333 -0.015 0
0.05 -0.015 0
0.0466667 -0.015 0
0.0433333 -0.015 0
0.04 -0.015 0
0.0366667 -0.015 0
0.0333333 -0.015 0
0.03 -0.015 0
0.0266667 -0.015 0
0.0233333 -0.015 0
0.02 -0.015 0
0.0166667 -0.015 0
0.0133333 -0.015 0
0.01 -0.015 0
0.00666667 -0.015 0
0.00333333 -0.015 0
0 -0.015 0
0.1 -0.0183333 0
0.0966667 -0.0183333 0
0.0933333 -0.0183333 0
0.09 -0.0183333 0
0.0866667 -0.0183333 0
0.0833333 -0.0183333 0
0.08 -0.0183333 0
0.0766667 -0.0183333 0
0.0733333 -0.0183333 0
0.07 -0.0183333 0
0.0666667 -0.0183333 0
0.0633333 -0.0183333 0
0.06 -0.0183333 0
0.0566667 -0.0183333 0
0.0533333 -0.0183333 0
0.05 -0.0183333 0
0.0466667 -0.0183333 0
0.0433333 -0.0183333 0
0.04 -0.0183333 0
0.0366667 -0.0183333 0
0.0333333 -0.0183333 0
0.03 -0.0183333 0
0.0266667 -0.0183333 0
0.0233333 -0.0183333 0
0.02 -0.0183333 0
0.0166667 -0.0183333 0
0.0133333 -0.0183333 0
0.01 -0.0183333 0
0.00666667 -0.0183333 0
0.00333333 -0.0183333 0
0 -0.0183333 0
0.1 -0.0216667 0
0.0966667 -0.0216667 0
0.0933333 -0.0216667 0
0.09 -0.0216667 0
0.0866667 -0.0216667 0
0.0833333 -0.0216667 0
0.08 -0.0216667 0
0.0766667 -0.0216667 0
0.0733333 -0.0216667 0
0.07 -0.0216667 0
0.0666667 -0.0216667 0
0.0633333 -0.0216667 0
0.06 -0.0216667 0
0.0566667 -0.0216667 0
0.0533333 -0.0216667 0
0.05 -0.0216667 0
0.0466667 -0.0216667 0
0.0433333 -0.0216667 0
0.04 -0.0216667 0
0.0366667 -0.0216667 0
0.0333333 -0.0216667 0
0.03 -0.0216667 0
0.0266667 -0.0216667 0
0.0233333 -0.0216667 0
0.02 -0.0216667 0
0.0166667 -0.0216667 0
0.0133333 -0.0216667 0
0.01 -0.0216667 0
0.00666667 -0.0216667 0
0.00333333 -0.0216667 0
0 -0.0216667 0
0.1 -0.025 0
0.0966667 -0.025 0
0.0933333 -0.025 0
0.09 -0.025 0
0.0866667 -0.025 0
0.0833333 -0.025 0
0.08 -0.025 0
0.0766667 -0.025 0
0.0733333 -0.025 0
0.07 -0.025 0
0.0666667 -0.025 0
0.0633333 -0.025 0
0.06 -0.025 0
0.0566667 -0.025 0
0.0533333 -0.025 0
0.05 -0.025 0
0.0466667 -0.025 0
0.0433333 -0.025 0
0.04 -0.025 0
0.0366667 -0.025 0
0.0333333 -0.025 0
0.03 -0.025 0
0.0266667 -0.025 0
0.0233333 -0.025 0
0.02 -0.025 0
0.0166667 -0.025 0
0.0133333 -0.025 0
0.01 -0.025 0
0.00666667 -0.025 0
0.00333333 -0.025 0
0 -0.025 0
0.1 -0.0283333 0
0.0966667 -0.0283333 0
0.0933333 -0.0283333 0
0.09 -0.0283333 0
0.0866667 -0.0283333 0
0.0833333 -0.0283333 0
0.08 -0.0283333 0
0.0766667 -0.0283333 0
0.0733333 -0.0283333 0
0.07 -0.0283333 0
0.0666667 -0.0283333 0
0.0633333 -0.0283333 0
0.06 -0.0283333 0
0.0566667 -0.0283333 0
0.0533333 -0.0283333 0
0.05 -0.0283333 0
0.0466667 -0.0283333 0
0.0433333 -0.0283333 0
0.04 -0.0283333 0
0.0366667 -0.0283333 0
0.0333333 -0.0283333 0
0.03 -0.0283333 0
0.0266667 -0.0283333 0
0.0233333 -0.0283333 0
0.02 -0.0283333 0
0.0166667 -0.0283333 0
0.0133333 -0.0283333 0
0.01 -0.0283333 0
0.00666667 -0.0283333 0
0.00333333 -0.0283333 0
0 -0.0283333 0
0.1 -0.0316667 0
0.0966667 -0.0316667 0
0.0933333 -0.0316667 0
0.09 -0.0316667 0
0.0866667 -0.0316667 0
0.0833333 -0.0316667 0
0.08 -0.0316667 0
0.0766667 -0.0316667 0
0.0733333 -0.0316667 0
0.07 -0.0316667 0
0.0666667 -0.0316667 0
0.0633333 -0.0316667 0
0.06 -0.0316667 0
0.0566667 -0.0316667 0
0.0533333 -0.0316667 0
0.05 -0.0316667 0
0.0466667 -0.0316667 0
0.0433333 -0.0316667 0
0.04 -0.0316667 0
0.0366667 -0.0316667 0
0.0333333 -0.0316667 0
0.03 -0.0316667 0
0.0266667 -0.0316667 0
0.0233333 -0.0316667 0
0.02 -0.0316667 0
0.0166667 -0.0316667 0
0.0133333 -0.0316667 0
0.01 -0.0316667 0
0.00666667 -0.0316667 0
0.00333333 -0.0316667 0
0 -0.0316667 0
0.1 -0.035 0
0.0966667 -0.035 0
0.0933333 -0.035 0
0.09 -0.035 0
0.0866667 -0.035 0
0.0833333 -0.035 0
0.08 -0.035 0
0.0766667 -0.035 0
0.0733333 -0.035 0
0.07 -0.035 0
0.0666667 -0.035 0
0.0633333 -0.035 0
0.06 -0.035 0
0.0566667 -0.035 0
0.0533333 -0.035 0
0.05 -0.035 0
0.0466667 -0.035 0
0.0433333 -0.035 0
0.04 -0.035 0
0.0366667 -0.035 0
0.0333333 -0.035 0
0.03 -0.035 0
0.0266667 -0.035 0
0.0233333 -0.035 0
0.02 -0.035 0
0.0166667 -0.035 0
0.0133333 -0.035 0
0.01 -0.035 0
0.00666667 -0.035 0
0.00333333 -0.035 0
0 -0.035 0
0.1 -0.0383333 0
0.0966667 -0.0383333 0
0.0933333 -0.0383333 0
0.09 -0.0383333 0
0.0866667 -0.0383333 0
0.0833333 -0.0383333 0
0.08 -0.0383333 0
0.0766667 -0.0383333 0
0.0733333 -0.0383333 0
0.07 -0.0383333 0
0.0666667 -0.0383333 0
0.0633333 -0.0383333 0
0.06 -0.0383333 0
0.0566667 -0.0383333 0
0.0533333 -0.0383333 0
0.05 -0.0383333 0
0.0466667 -0.0383333 0
0.0433333 -0.0383333 0
0.04 -0.0383333 0
0.0366667 -0.0383333 0
0.0333333 -0.0383333 0
0.03 -0.0383333 0
0.0266667 -0.0383333 0
0.0233333 -0.0383333 0
0.02 -0.0383333 0
0.0166667 -0.0383333 0
0.0133333 -0.0383333 0
0.01 -0.0383333 0
0.00666667 -0.0383333 0
0.00333333 -0.0383333 0
0 -0.0383333 0
0.1 -0.0416667 0
0.0966667 -0.0416667 0
0.0933333 -0.0416667 0
0.09 -0.0416667 0
0.0866667 -0.0416667 0
0.0833333 -0.0416667 0
0.08 -0.0416667 0
0.0766667 -0.0416667 0
0.0733333 -0.0416667 0
0.07 -0.0416667 0
0.0666667 -0.0416667 0
0.0633333 -0.0416667 0
0.06 -0.0416667 0
0.0566667 -0.0416667 0
0.0533333 -0.0416667 0
0.05 -0.0416667 0
0.0466667 -0.0416667 0
0.0433333 -0.0416667 0
0.04 -0.0416667 0
0.0366667 -0.0416667 0
0.0333333 -0.0416667 0
0.03 -0.0416667 0
0.0266667 -0.0416667 0
0.0233333 -0.0416667 0
0.02 -0.0416667 0
0.0166667 -0.0416667 0
0.0133333 -0.0416667 0
0.01 -0.0416667 0
0.00666667 -0.0416667 0
0.00333333 -0.0416667 0
0 -0.0416667 0
0.1 -0.045 0
0.0966667 -0.045 0
0.0933333 -0.045 0
0.09 -0.045 0
0.0866667 -0.045 0
0.0833333 -0.045 0
0.08 -0.045 0
0.0766667 -0.045 0
0.0733333 -0.045 0
0.07 -0.045 0
0.0666667 -0.045 0
0.0633333 -0.045 0
0.06 -0.045 0
0.0566667 -0.045 0
0.0533333 -0.045 0
0.05 -0.045 0
0.0466667 -0.045 0
0.0433333 -0.045 0
0.04 -0.045 0
0.0366667 -0.045 0
0.0333333 -0.045 0
0.03 -0.045 0
0.0266667 -0.045 0
0.0233333 -0.045 0
0.02 -0.045 0
0.0166667 -0.045 0
0.0133333 -0.045 0
0.01 -0.045 0
0.00666667 -0.045 0
0.00333333 -0.045 0
0 -0.045 0
0.1 -0.0483333 0
0.0966667 -0.0483333 0
0.0933333 -0.0483333 0
0.09 -0.0483333 0
0.0866667 -0.0483333 0
[...]
POINT_DATA 961
SCALARS Temp float 1
LOOKUP_TABLE default
1080.419347
1075.769956
1071.395001
1067.304132
1063.506379
1060.010150
1056.823151
1053.952437
1051.404337
1049.184490
1047.297795
1045.748415
1044.539780
1043.674558
1043.154659
1042.981232
1043.154659
1043.674559
1044.539782
1045.748418
1047.297794
1049.184493
1051.404341
1053.952439
1056.823157
1060.010151
1063.506385
1067.304134
1071.395007
1075.769970
1080.419358
1075.769964
1070.939799
1066.394740
1062.144815
1058.199403
1054.567237
1051.256325
1048.273995
1045.626823
1043.320667
1041.360615
1039.750995
1038.495367
1037.596505
1037.056391
1036.876221
1037.056392
1037.596505
1038.495369
1039.750998
1041.360615
1043.320670
1045.626827
1048.273997
1051.256331
1054.567238
1058.199408
1062.144817
1066.394746
1070.939811
1075.769971
1071.395002
1066.394735
1061.689614
1057.290020
1053.205663
1049.445585
1046.018074
1042.930717
1040.190320
1037.802949
1035.773871
1034.107565
1032.807718
1031.877201
1031.318066
1031.131551
1031.318067
1031.877202
1032.807720
1034.107568
1035.773870
1037.802951
1040.190324
1042.930719
1046.018080
1049.445586
1053.205669
1057.290021
1061.689620
1066.394746
1071.395008
1067.304129
1062.144806
1057.290016
1052.750472
1048.536194
1044.656509
1041.119970
1037.934405
1035.106837
1032.643525
1030.549903
1028.830592
1027.489398
1026.529281
1025.952361
1025.759913
1025.952361
1026.529282
1027.489400
1028.830595
1030.549902
1032.643528
1035.106842
1037.934407
1041.119976
1044.656510
1048.536199
1052.750474
1057.290021
1062.144816
1067.304134
1063.506381
1058.199398
1053.205664
1048.536199
1044.201308
1040.210586
1036.572832
1033.296096
1030.387603
1027.853791
1025.700249
1023.931732
1022.552153
1021.564558
1020.971126
1020.773170
1020.971127
1021.564559
1022.552155
1023.931735
1025.700248
1027.853794
1030.387608
1033.296098
1036.572838
1040.210587
1044.201313
1048.536200
1053.205669
1058.199408
1063.506385
1060.010148
1054.567229
1049.445582
1044.656511
1040.210583
1036.117640
1032.386706
1029.026038
1026.043045
1023.444330
1021.235626
1019.421810
1018.006893
1016.994001
1016.385369
1016.182342
1016.385369
1016.994001
1018.006895
1019.421812
1021.235625
1023.444333
1026.043050
1029.026040
1032.386712
1036.117641
1040.210588
1044.656511
1049.445587
1054.567239
1060.010152
1056.823154
1051.256321
1046.018076
1041.119976
1036.572833
1032.386711
1028.570838
1025.133662
1022.082758
1019.424881
1017.165894
1015.310784
1013.863656
1012.827704
1012.205216
1011.997567
1012.205216
1012.827705
1013.863658
1015.310787
1017.165893
1019.424884
1022.082763
1025.133664
1028.570845
1032.386711
1036.572838
1041.119976
1046.018080
1051.256331
1056.823157
1053.952437
1048.273989
1042.930716
1037.934409
1033.296094
1029.026040
1025.133658
1021.627566
1018.515491
1015.804323
1013.500044
1011.607738
1010.131595
1009.074872
1008.439903
1008.228091
1008.439903
1009.074873
1010.131597
1011.607741
1013.500043
1015.804326
1018.515496
1021.627568
1025.133665
1029.026040
1033.296099
1037.934408
1042.930720
1048.273998
1053.952440
1051.404339
1045.626819
1040.190322
1035.106844
1030.387605
1026.043050
1022.082758
1018.515494
1015.349123
1012.590654
1010.246171
1008.320851
1006.818953
1005.743793
1005.097746
1004.882238
1005.097746
1005.743794
1006.818955
1008.320854
1010.246170
1012.590657
1015.349128
1018.515496
1022.082764
1026.043050
1030.387609
1035.106843
1040.190325
1045.626828
1051.404342
1049.184490
1043.320660
1037.802947
1032.643528
1027.853789
1023.444332
1019.424878
1015.804323
1012.590650
1009.790972
1007.411465
1005.457383
1003.933048
1002.841827
1002.186128
1001.967401
1002.186129
1002.841828
1003.933051
1005.457386
1007.411464
1009.790975
1012.590655
1015.804325
1019.424884
1023.444332
1027.853794
1032.643528
1037.802951
1043.320669
1049.184493
1047.297793
1041.360607
1035.773867
1030.549904
1025.700245
1021.235626
1017.165888
1013.500041
1010.246165
1007.411463
1005.002189
1003.023661
1001.480257
1000.375385
999.711483
999.490019
999.711483
1000.375385
1001.480259
1003.023664
1005.002187
1007.411466
1010.246170
1013.500043
1017.165895
1021.235626
1025.700250
1030.549903
1035.773871
1041.360616
1047.297795
1045.748416
1039.750989
1034.107564
1028.830597
1023.931731
1019.421812
1015.310781
1011.607739
1008.320848
1005.457384
1003.023664
1001.025061
999.465997
998.349915
997.679277
997.455566
997.679277
998.349915
999.465999
1001.025064
1003.023663
1005.457387
1008.320853
1011.607741
1015.310788
1019.421812
1023.931736
1028.830596
1034.107568
1039.750998
1045.748419
1044.539781
1038.495361
1032.807718
1027.489402
1022.552152
1018.006895
1013.863653
1010.131595
1006.818950
1003.933049
1001.480260
999.465997
997.894717
996.769889
996.093997
995.868533
996.093997
996.769890
997.894719
999.466000
1001.480259
1003.933052
1006.818955
1010.131597
1013.863659
1018.006895
1022.552157
1027.489401
1032.807721
1038.495370
1044.539784
1043.674558
1037.596497
1031.877199
1026.529284
1021.564556
1016.994002
1012.827700
1009.074871
1005.743789
1002.841827
1000.375386
998.349913
996.769888
995.638800
994.959146
994.732427
994.959146
995.638801
996.769890
998.349916
1000.375385
1002.841830
1005.743794
1009.074873
1012.827706
1016.994002
1021.564560
1026.529284
1031.877203
1037.596507
1043.674561
1043.154658
1037.056384
1031.318065
1025.952364
1020.971124
1016.385370
1012.205212
1008.439902
1005.097741
1002.186128
999.711485
997.679275
996.093995
994.959146
994.277231
994.049759
994.277231
994.959147
996.093998
997.679278
999.711484
1002.186131
1005.097747
1008.439904
1012.205218
1016.385370
1020.971129
1025.952363
1031.318069
1037.056393
1043.154661
1042.981231
1036.876213
1031.131549
1025.759916
1020.773168
1016.182343
1011.997563
1008.228090
1004.882234
1001.967401
999.490021
997.455565
995.868532
994.732428
994.049759
993.822035
994.049759
994.732428
995.868535
997.455568
999.490020
1001.967404
1004.882239
1008.228092
1011.997569
1016.182343
1020.773173
1025.759915
1031.131553
1036.876223
1042.981234
1043.154658
1037.056384
1031.318065
1025.952364
1020.971124
1016.385370
1012.205212
1008.439902
1005.097741
1002.186128
999.711485
997.679275
996.093996
994.959146
994.277231
994.049759
994.277232
994.959147
996.093998
997.679279
999.711484
1002.186131
1005.097747
1008.439904
1012.205218
1016.385370
1020.971129
1025.952364
1031.318069
1037.056394
1043.154662
1043.674558
1037.596497
1031.877199
1026.529284
1021.564555
1016.994002
1012.827700
1009.074871
1005.743789
1002.841827
1000.375387
998.349913
996.769888
995.638800
994.959146
994.732428
994.959146
995.638801
996.769891
998.349917
1000.375386
1002.841830
1005.743795
1009.074874
1012.827707
1016.994002
1021.564561
1026.529284
1031.877203
1037.596507
1043.674561
1044.539781
1038.495361
1032.807717
1027.489402
1022.552152
1018.006895
1013.863653
1010.131595
1006.818950
1003.933049
1001.480260
999.465997
997.894717
996.769890
996.093997
995.868534
996.093997
996.769890
997.894720
999.466001
1001.480259
1003.933052
1006.818955
1010.131598
1013.863660
1018.006896
1022.552158
1027.489402
1032.807722
1038.495371
1044.539784
1045.748416
1039.750989
1034.107564
1028.830596
1023.931731
1019.421812
1015.310781
1011.607739
1008.320848
1005.457384
1003.023664
1001.025061
999.465998
998.349915
997.679277
997.455567
997.679278
998.349916
999.466000
1001.025065
1003.023664
1005.457388
1008.320854
1011.607742
1015.310789
1019.421813
1023.931737
1028.830597
1034.107569
1039.750999
1045.748420
1047.297793
1041.360607
1035.773868
1030.549905
1025.700246
1021.235627
1017.165890
1013.500042
1010.246166
1007.411464
1005.002190
1003.023662
1001.480258
1000.375387
999.711485
999.490021
999.711485
1000.375387
1001.480261
1003.023666
1005.002190
1007.411468
1010.246173
1013.500045
1017.165897
1021.235628
1025.700253
1030.549906
1035.773874
1041.360618
1047.297798
1049.184488
1043.320659
1037.802946
1032.643527
1027.853787
1023.444330
1019.424876
1015.804322
1012.590649
1009.790971
1007.411464
1005.457382
1003.933047
1002.841827
1002.186128
1001.967400
1002.186128
1002.841828
1003.933050
1005.457386
1007.411464
1009.790975
1012.590655
1015.804325
1019.424884
1023.444332
1027.853794
1032.643528
1037.802952
1043.320670
1049.184493
1051.404340
1045.626820
1040.190322
1035.106845
1030.387606
1026.043051
1022.082759
1018.515496
1015.349125
1012.590655
1010.246173
1008.320853
1006.818955
1005.743796
1005.097748
1004.882241
1005.097749
1005.743797
1006.818958
1008.320857
1010.246173
1012.590660
1015.349132
1018.515500
1022.082768
1026.043054
1030.387613
1035.106847
1040.190329
1045.626832
1051.404346
1053.952435
1048.273987
1042.930714
1037.934407
1033.296092
1029.026038
1025.133656
1021.627564
1018.515490
1015.804322
1013.500042
1011.607737
1010.131594
1009.074871
1008.439902
1008.228090
1008.439902
1009.074872
1010.131597
1011.607741
1013.500042
1015.804326
1018.515496
1021.627568
1025.133665
1029.026041
1033.296100
1037.934409
1042.930721
1048.273999
1053.952441
1056.823155
1051.256323
1046.018078
1041.119979
1036.572835
1032.386713
1028.570841
1025.133665
1022.082762
1019.424885
1017.165898
1015.310788
1013.863660
1012.827709
1012.205220
1011.997572
1012.205221
1012.827710
1013.863663
1015.310792
1017.165899
1019.424889
1022.082769
1025.133669
1028.570850
1032.386717
1036.572844
1041.119982
1046.018086
1051.256337
1056.823163
1060.010147
1054.567228
1049.445581
1044.656510
1040.210582
1036.117640
1032.386705
1029.026038
1026.043045
1023.444330
1021.235627
1019.421810
1018.006894
1016.994002
1016.385370
1016.182343
1016.385370
1016.994003
1018.006897
1019.421814
1021.235627
1023.444335
1026.043052
1029.026042
1032.386715
1036.117644
1040.210591
1044.656514
1049.445590
1054.567242
1060.010155
1063.506376
1058.199393
1053.205659
1048.536194
1044.201304
1040.210582
1036.572828
1033.296092
1030.387600
1027.853787
1025.700246
1023.931729
1022.552150
1021.564555
1020.971124
1020.773167
1020.971124
1021.564556
1022.552153
1023.931733
1025.700247
1027.853792
1030.387607
1033.296097
1036.572837
1040.210587
1044.201313
1048.536200
1053.205670
1058.199409
1063.506386
1067.304128
1062.144805
1057.290015
1052.750472
1048.536194
1044.656509
1041.119971
1037.934406
1035.106839
1032.643526
1030.549905
1028.830595
1027.489401
1026.529284
1025.952364
1025.759916
1025.952364
1026.529285
1027.489404
1028.830599
1030.549906
1032.643532
1035.106846
1037.934412
1041.119981
1044.656515
1048.536205
1052.750479
1057.290027
1062.144822
1067.304140
1071.394997
1066.394730
1061.689609
1057.290015
1053.205659
1049.445581
1046.018070
1042.930713
1040.190317
1037.802946
1035.773868
1034.107562
1032.807716
1031.877199
1031.318064
1031.131549
1031.318065
1031.877200
1032.807719
1034.107566
1035.773869
1037.802951
1040.190324
1042.930719
1046.018080
1049.445587
1053.205670
1057.290023
1061.689622
1066.394750
1071.395011
1075.769963
1070.939799
1066.394740
1062.144816
1058.199405
1054.567239
1051.256328
1048.273999
1045.626827
1043.320671
1041.360620
1039.751000
1038.495372
1037.596510
1037.056397
1036.876227
1037.056397
1037.596511
1038.495375
1039.751004
1041.360621
1043.320676
1045.626834
1048.274004
1051.256338
1054.567245
1058.199416
1062.144825
1066.394755
1070.939821
1075.769983
1080.419339
1075.769950
1071.394997
1067.304129
1063.506377
1060.010148
1056.823149
1053.952435
1051.404335
1049.184489
1047.297794
1045.748415
1044.539780
1043.674558
1043.154659
1042.981232
1043.154659
1043.674559
1044.539783
1045.748419
1047.297795
1049.184494
1051.404342
1053.952441
1056.823159
1060.010153
1063.506388
1067.304138
1071.395012
1075.769977
1080.419368
