# vtk DataFile Version 2.0
Unstructured Grid Example
ASCII
DATASET UNSTRUCTURED_GRID

POINTS 961 float
0.1 0.005 0
0.0966667 0.005 0
0.0933333 0.005 0
0.09 0.005 0
0.0866667 0.005 0
0.0833333 0.005 0
0.08 0.005 0
0.0766667 0.005 0
0.0733333 0.005 0
0.07 0.005 0
0.0666667 0.005 0
0.0633333 0.005 0
0.06 0.005 0
0.0566667 0.005 0
0.0533333 0.005 0
0.05 0.005 0
0.0466667 0.005 0
0.0433333 0.005 0
0.04 0.005 0
0.0366667 0.005 0
0.0333333 0.005 0
0.03 0.005 0
0.0266667 0.005 0
0.0233333 0.005 0
0.02 0.005 0
0.0166667 0.005 0
0.0133333 0.005 0
0.01 0.005 0
0.00666667 0.005 0
0.00333333 0.005 0
0 0.005 0
0.1 0.00166667 0
0.0966667 0.00166667 0
0.0933333 0.00166667 0
0.09 0.00166667 0
0.0866667 0.00166667 0
0.0833333 0.00166667 0
0.08 0.00166667 0
0.0766667 0.00166667 0
0.0733333 0.00166667 0
0.07 0.00166667 0
0.0666667 0.00166667 0
0.0633333 0.00166667 0
0.06 0.00166667 0
0.0566667 0.00166667 0
0.0533333 0.00166667 0
0.05 0.00166667 0
0.0466667 0.00166667 0
0.0433333 0.00166667 0
0.04 0.00166667 0
0.0366667 0.00166667 0
0.0333333 0.00166667 0
0.03 0.00166667 0
0.0266667 0.00166667 0
0.0233333 0.00166667 0
0.02 0.00166667 0
0.0166667 0.00166667 0
0.0133333 0.00166667 0
0.01 0.00166667 0
0.00666667 0.00166667 0
0.00333333 0.00166667 0
0 0.00166667 0
0.1 -0.00166667 0
0.0966667 -0.00166667 0
0.0933333 -0.00166667 0
0.09 -0.00166667 0
0.0866667 -0.00166667 0
0.0833333 -0.00166667 0
0.08 -0.00166667 0
0.0766667 -0.00166667 0
0.0733333 -0.00166667 0
0.07 -0.00166667 0
0.0666667 -0.00166667 0
0.0633333 -0.00166667 0
0.06 -0.00166667 0
0.0566667 -0.00166667 0
0.0533333 -0.00166667 0
0.05 -0.00166667 0
0.0466667 -0.00166667 0
0.0433333 -0.00166667 0
0.04 -0.00166667 0
0.0366667 -0.00166667 0
0.0333333 -0.00166667 0
0.03 -0.00166667 0
0.0266667 -0.00166667 0
0.0233333 -0.00166667 0
0.02 -0.00166667 0
0.0166667 -0.00166667 0
0.0133333 -0.00166667 0
0.01 -0.00166667 0
0.00666667 -0.00166667 0
0.00333333 -0.00166667 0
0 -0.00166667 0
0.1 -0.005 0
0.0966667 -0.005 0
0.0933333 -0.005 0
0.09 -0.005 0
0.0866667 -0.005 0
0.0833333 -0.005 0
0.08 -0.005 0
0.0766667 -0.005 0
0.0733333 -0.005 0
0.07 -0.005 0
0.0666667 -0.005 0
0.0633333 -0.005 0
0.06 -0.005 0
0.0566667 -0.005 0
0.0533333 -0.005 0
0.05 -0.005 0
0.0466667 -0.005 0
0.0433333 -0.005 0
0.04 -0.005 0
0.0366667 -0.005 0
0.0333333 -0.005 0
0.03 -0.005 0
0.0266667 -0.005 0
0.0233333 -0.005 0
0.02 -0.005 0
0.0166667 -0.005 0
0.0133333 -0.005 0
0.01 -0.005 0
0.00666667 -0.005 0
0.00333333 -0.005 0
0 -0.005 0
0.1 -0.00833333 0
0.0966667 -0.00833333 0
0.0933333 -0.00833333 0
0.09 -0.00833333 0
0.0866667 -0.00833333 0
0.0833333 -0.00833333 0
0.08 -0.00833333 0
0.0766667 -0.00833333 0
0.0733333 -0.00833333 0
0.07 -0.00833333 0
0.0666667 -0.00833333 0
0.0633333 -0.00833333 0
0.06 -0.00833333 0
0.0566667 -0.00833333 0
0.0533333 -0.00833333 0
0.05 -0.00833333 0
0.0466667 -0.00833333 0
0.0433333 -0.00833333 0
0.04 -0.00833333 0
0.0366667 -0.00833333 0
0.0333333 -0.00833333 0
0.03 -0.00833333 0
0.0266667 -0.00833333 0
0.0233333 -0.00833333 0
0.02 -0.00833333 0
0.0166667 -0.00833333 0
0.0133333 -0.00833333 0
0.01 -0.00833333 0
0.00666667 -0.00833333 0
0.00333333 -0.00833333 0
0 -0.00833333 0
0.1 -0.0116667 0
0.0966667 -0.0116667 0
0.0933333 -0.0116667 0
0.09 -0.0116667 0
0.0866667 -0.0116667 0
0.0833333 -0.0116667 0
0.08 -0.0116667 0
0.0766667 -0.0116667 0
0.0733333 -0.0116667 0
0.07 -0.0116667 0
0.0666667 -0.0116667 0
0.0633333 -0.0116667 0
0.06 -0.0116667 0
0.0566667 -0.0116667 0
0.0533333 -0.0116667 0
0.05 -0.0116667 0
0.0466667 -0.0116667 0
0.0433333 -0.0116667 0
0.04 -0.0116667 0
0.0366667 -0.0116667 0
0.0333333 -0.0116667 0
0.03 -0.0116667 0
0.0266667 -0.0116667 0
0.0233333 -0.0116667 0
0.02 -0.0116667 0
0.0166667 -0.0116667 0
0.0133333 -0.0116667 0
0.01 -0.0116667 0
0.00666667 -0.0116667 0
0.00333333 -0.0116667 0
0 -0.0116667 0
0.1 -0.015 0
0.0966667 -0.015 0
0.0933333 -0.015 0
0.09 -0.015 0
0.0866667 -0.015 0
0.0833333 -0.015 0
0.08 -0.015 0
0.0766667 -0.015 0
0.0733333 -0.015 0
0.07 -0.015 0
0.0666667 -0.015 0
0.0633333 -0.015 0
0.06 -0.015 0
0.0566667 -0.015 0
0.0533333 -0.015 0
0.05 -0.015 0
0.0466667 -0.015 0
0.0433333 -0.015 0
0.04 -0.015 0
0.0366667 -0.015 0
0.0333333 -0.015 0
0.03 -0.015 0
0.0266667 -0.015 0
0.0233333 -0.015 0
0.02 -0.015 0
0.0166667 -0.015 0
0.0133333 -0.015 0
0.01 -0.015 0
0.00666667 -0.015 0
0.00333333 -0.015 0
0 -0.015 0
0.1 -0.0183333 0
0.0966667 -0.0183333 0
0.0933333 -0.0183333 0
0.09 -0.0183333 0
0.0866667 -0.0183333 0
0.0833333 -0.0183333 0
0.08 -0.0183333 0
0.0766667 -0.0183333 0
0.0733333 -0.0183333 0
0.07 -0.0183333 0
0.0666667 -0.0183333 0
0.0633333 -0.0183333 0
0.06 -0.0183333 0
0.0566667 -0.0183333 0
0.0533333 -0.0183333 0
0.05 -0.0183333 0
0.0466667 -0.0183333 0
0.0433333 -0.0183333 0
0.04 -0.0183333 0
0.0366667 -0.0183333 0
0.0333333 -0.0183333 0
0.03 -0.0183333 0
0.0266667 -0.0183333 0
0.0233333 -0.0183333 0
0.02 -0.0183333 0
0.0166667 -0.0183333 0
0.0133333 -0.0183333 0
0.01 -0.0183333 0
0.00666667 -0.0183333 0
0.00333333 -0.0183333 0
0 -0.0183333 0
0.1 -0.0216667 0
0.0966667 -0.0216667 0
0.0933333 -0.0216667 0
0.09 -0.0216667 0
0.0866667 -0.0216667 0
0.0833333 -0.0216667 0
0.08 -0.0216667 0
0.0766667 -0.0216667 0
0.0733333 -0.0216667 0
0.07 -0.0216667 0
0.0666667 -0.0216667 0
0.0633333 -0.0216667 0
0.06 -0.0216667 0
0.0566667 -0.0216667 0
0.0533333 -0.0216667 0
0.05 -0.0216667 0
0.0466667 -0.0216667 0
0.0433333 -0.0216667 0
0.04 -0.0216667 0
0.0366667 -0.0216667 0
0.0333333 -0.0216667 0
0.03 -0.0216667 0
0.0266667 -0.0216667 0
0.0233333 -0.0216667 0
0.02 -0.0216667 0
0.0166667 -0.0216667 0
0.0133333 -0.0216667 0
0.01 -0.0216667 0
0.00666667 -0.0216667 0
0.00333333 -0.0216667 0
0 -0.0216667 0
0.1 -0.025 0
0.0966667 -0.025 0
0.0933333 -0.025 0
0.09 -0.025 0
0.0866667 -0.025 0
0.0833333 -0.025 0
0.08 -0.025 0
0.0766667 -0.025 0
0.0733333 -0.025 0
0.07 -0.025 0
0.0666667 -0.025 0
0.0633333 -0.025 0
0.06 -0.025 0
0.0566667 -0.025 0
0.0533333 -0.025 0
0.05 -0.025 0
0.0466667 -0.025 0
0.0433333 -0.025 0
0.04 -0.025 0
0.0366667 -0.025 0
0.0333333 -0.025 0
0.03 -0.025 0
0.0266667 -0.025 0
0.0233333 -0.025 0
0.02 -0.025 0
0.0166667 -0.025 0
0.0133333 -0.025 0
0.01 -0.025 0
0.00666667 -0.025 0
0.00333333 -0.025 0
0 -0.025 0
0.1 -0.0283333 0
0.0966667 -0.0283333 0
0.0933333 -0.0283333 0
0.09 -0.0283333 0
0.0866667 -0.0283333 0
0.0833333 -0.0283333 0
0.08 -0.0283333 0
0.0766667 -0.0283333 0
0.0733333 -0.0283333 0
0.07 -0.0283333 0
0.0666667 -0.0283333 0
0.0633333 -0.0283333 0
0.06 -0.0283333 0
0.0566667 -0.0283333 0
0.0533333 -0.0283333 0
0.05 -0.0283333 0
0.0466667 -0.0283333 0
0.0433333 -0.0283333 0
0.04 -0.0283333 0
0.0366667 -0.0283333 0
0.0333333 -0.0283333 0
0.03 -0.0283333 0
0.0266667 -0.0283333 0
0.0233333 -0.0283333 0
0.02 -0.0283333 0
0.0166667 -0.0283333 0
0.0133333 -0.0283333 0
0.01 -0.0283333 0
0.00666667 -0.0283333 0
0.00333333 -0.0283333 0
0 -0.0283333 0
0.1 -0.0316667 0
0.0966667 -0.0316667 0
0.0933333 -0.0316667 0
0.09 -0.0316667 0
0.0866667 -0.0316667 0
0.0833333 -0.0316667 0
0.08 -0.0316667 0
0.0766667 -0.0316667 0
0.0733333 -0.0316667 0
0.07 -0.0316667 0
0.0666667 -0.0316667 0
0.0633333 -0.0316667 0
0.06 -0.0316667 0
0.0566667 -0.0316667 0
0.0533333 -0.0316667 0
0.05 -0.0316667 0
0.0466667 -0.0316667 0
0.0433333 -0.0316667 0
0.04 -0.0316667 0
0.0366667 -0.0316667 0
0.0333333 -0.0316667 0
0.03 -0.0316667 0
0.0266667 -0.0316667 0
0.0233333 -0.0316667 0
0.02 -0.0316667 0
0.0166667 -0.0316667 0
0.0133333 -0.0316667 0
0.01 -0.0316667 0
0.00666667 -0.0316667 0
0.00333333 -0.0316667 0
0 -0.0316667 0
0.1 -0.035 0
0.0966667 -0.035 0
0.0933333 -0.035 0
0.09 -0.035 0
0.0866667 -0.035 0
0.0833333 -0.035 0
0.08 -0.035 0
0.0766667 -0.035 0
0.0733333 -0.035 0
0.07 -0.035 0
0.0666667 -0.035 0
0.0633333 -0.035 0
0.06 -0.035 0
0.0566667 -0.035 0
0.0533333 -0.035 0
0.05 -0.035 0
0.0466667 -0.035 0
0.0433333 -0.035 0
0.04 -0.035 0
0.0366667 -0.035 0
0.0333333 -0.035 0
0.03 -0.035 0
0.0266667 -0.035 0
0.0233333 -0.035 0
0.02 -0.035 0
0.0166667 -0.035 0
0.0133333 -0.035 0
0.01 -0.035 0
0.00666667 -0.035 0
0.00333333 -0.035 0
0 -0.035 0
0.1 -0.0383333 0
0.0966667 -0.0383333 0
0.0933333 -0.0383333 0
0.09 -0.0383333 0
0.0866667 -0.0383333 0
0.0833333 -0.0383333 0
0.08 -0.0383333 0
0.0766667 -0.0383333 0
0.0733333 -0.0383333 0
0.07 -0.0383333 0
0.0666667 -0.0383333 0
0.0633333 -0.0383333 0
0.06 -0.0383333 0
0.0566667 -0.0383333 0
0.0533333 -0.0383333 0
0.05 -0.0383333 0
0.0466667 -0.0383333 0
0.0433333 -0.0383333 0
0.04 -0.0383333 0
0.0366667 -0.0383333 0
0.0333333 -0.0383333 0
0.03 -0.0383333 0
0.0266667 -0.0383333 0
0.0233333 -0.0383333 0
0.02 -0.0383333 0
0.0166667 -0.0383333 0
0.0133333 -0.0383333 0
0.01 -0.0383333 0
0.00666667 -0.0383333 0
0.00333333 -0.0383333 0
0 -0.0383333 0
0.1 -0.0416667 0
0.0966667 -0.0416667 0
0.0933333 -0.0416667 0
0.09 -0.0416667 0
0.0866667 -0.0416667 0
0.0833333 -0.0416667 0
0.08 -0.0416667 0
0.0766667 -0.0416667 0
0.0733333 -0.0416667 0
0.07 -0.0416667 0
0.0666667 -0.0416667 0
0.0633333 -0.0416667 0
0.06 -0.0416667 0
0.0566667 -0.0416667 0
0.0533333 -0.0416667 0
0.05 -0.0416667 0
0.0466667 -0.0416667 0
0.0433333 -0.0416667 0
0.04 -0.0416667 0
0.0366667 -0.0416667 0
0.0333333 -0.0416667 0
0.03 -0.0416667 0
0.0266667 -0.0416667 0
0.0233333 -0.0416667 0
0.02 -0.0416667 0
0.0166667 -0.0416667 0
0.0133333 -0.0416667 0
0.01 -0.0416667 0
0.00666667 -0.0416667 0
0.00333333 -0.0416667 0
0 -0.0416667 0
0.1 -0.045 0
0.0966667 -0.045 0
0.0933333 -0.045 0
0.09 -0.045 0
0.0866667 -0.045 0
0.0833333 -0.045 0
0.08 -0.045 0
0.0766667 -0.045 0
0.0733333 -0.045 0
0.07 -0.045 0
0.0666667 -0.045 0
0.0633333 -0.045 0
0.06 -0.045 0
0.0566667 -0.045 0
0.0533333 -0.045 0
0.05 -0.045 0
0.0466667 -0.045 0
0.0433333 -0.045 0
0.04 -0.045 0
0.0366667 -0.045 0
0.0333333 -0.045 0
0.03 -0.045 0
0.0266667 -0.045 0
0.0233333 -0.045 0
0.02 -0.045 0
0.0166667 -0.045 0
0.0133333 -0.045 0
0.01 -0.045 0
0.00666667 -0.045 0
0.00333333 -0.045 0
0 -0.045 0
0.1 -0.0483333 0
0.0966667 -0.0483333 0
0.0933333 -0.0483333 0
0.09 -0.0483333 0
0.0866667 -0.0483333 0
[...]
POINT_DATA 961
SCALARS Temp float 1
LOOKUP_TABLE default
835.260537
821.079933
807.737910
795.263852
783.685169
773.027303
763.313508
754.564995
746.800732
740.037573
734.290106
729.570704
725.889530
723.254476
721.671183
721.143043
721.671184
723.254478
725.889535
729.570711
734.290103
740.037580
746.800745
754.565000
763.313525
773.027306
783.685184
795.263856
807.737929
821.079974
835.260569
821.079955
806.348022
792.487272
779.528237
767.499390
756.427161
746.335705
737.247062
729.180935
722.154832
716.183911
711.281025
707.456732
704.719231
703.074382
702.525707
703.074382
704.719232
707.456737
711.281033
716.183908
722.154840
729.180948
737.247067
746.335723
756.427163
767.499406
779.528242
792.487290
806.348057
821.079976
807.737914
792.487258
778.138459
764.723126
752.270734
740.808643
730.361860
720.953199
712.603058
705.329561
699.148399
694.072879
690.113930
687.280039
685.577274
685.009281
685.577274
687.280041
690.113935
694.072887
699.148396
705.329569
712.603071
720.953205
730.361878
740.808645
752.270750
764.723130
778.138476
792.487291
807.737930
795.263843
779.528211
764.723114
750.881168
738.032785
726.206195
715.427200
705.719340
697.103661
689.598864
683.221139
677.984216
673.899370
670.975361
669.218447
668.632391
669.218448
670.975363
673.899376
677.984224
683.221136
689.598872
697.103675
705.719345
715.427218
726.206196
738.032800
750.881170
764.723129
779.528241
795.263857
783.685173
767.499376
752.270736
738.032800
724.816850
712.651925
701.564565
691.578982
682.716826
674.997333
668.437154
663.050413
658.848708
655.841049
654.033873
653.431051
654.033874
655.841050
658.848714
663.050421
668.437151
674.997341
682.716840
691.578988
701.564583
712.651926
724.816864
738.032800
752.270749
767.499405
783.685185
773.027299
756.427137
740.808636
726.206200
712.651915
700.175561
688.804359
678.563140
669.474108
661.556991
654.828868
649.304224
644.994953
641.910296
640.056855
639.438601
640.056856
641.910297
644.994959
649.304232
654.828865
661.556999
669.474122
678.563145
688.804377
700.175561
712.651929
726.206200
740.808648
756.427165
773.027309
763.313517
746.335695
730.361867
715.427220
701.564570
688.804375
677.174473
666.700262
657.404451
649.307217
642.426027
636.775694
632.368386
629.213552
627.317945
626.685625
627.317945
629.213553
632.368392
636.775702
642.426023
649.307225
657.404465
666.700267
677.174491
688.804374
701.564584
715.427219
730.361878
746.335723
763.313526
754.564996
737.247043
720.953197
705.719351
691.578978
678.563146
666.700253
656.016203
646.534160
638.274707
631.255659
625.492129
620.996525
617.778487
615.844904
615.199916
615.844904
617.778489
620.996531
625.492137
631.255655
638.274715
646.534174
656.016207
666.700270
678.563145
691.578991
705.719349
720.953207
737.247070
754.565004
746.800741
729.180924
712.603064
697.103681
682.716831
669.474124
657.404451
646.534170
636.886848
628.483426
621.342032
615.478039
610.904073
607.629942
605.662655
605.006425
605.662656
607.629944
610.904079
615.478047
621.342028
628.483434
636.886863
646.534174
657.404469
669.474122
682.716844
697.103679
712.603074
729.180951
746.800749
740.037573
722.154812
705.329558
689.598876
674.997328
661.556997
649.307206
638.274706
628.483416
619.954588
612.706621
606.755118
602.112894
598.789904
596.793258
596.127235
596.793259
598.789905
602.112901
606.755127
612.706617
619.954596
628.483430
638.274711
649.307224
661.556995
674.997341
689.598872
705.329568
722.154839
740.037581
734.290100
716.183885
699.148390
683.221144
668.437142
654.828867
642.426009
631.255652
621.342014
612.706614
605.368079
599.342209
594.641978
591.277465
589.255870
588.581525
589.255871
591.277466
594.641984
599.342218
605.368075
612.706622
621.342028
631.255656
642.426027
654.828865
668.437155
683.221141
699.148400
716.183911
734.290107
729.570706
711.281007
694.072878
677.984230
663.050410
649.304232
636.775686
625.492131
615.478030
606.755121
599.342220
593.255285
588.507422
585.108814
583.066733
582.385554
583.066733
585.108815
588.507429
593.255293
599.342215
606.755129
615.478045
625.492135
636.775704
649.304230
663.050423
677.984226
694.072888
711.281034
729.570714
725.889531
707.456712
690.113928
673.899383
658.848704
644.994960
632.368376
620.996526
610.904063
602.112896
594.641987
588.507421
583.722406
580.297203
578.239142
577.552633
578.239143
580.297204
583.722413
588.507430
594.641983
602.112904
610.904078
620.996530
632.368394
644.994958
658.848717
673.899379
690.113938
707.456739
725.889538
723.254475
704.719208
687.280034
670.975371
655.841041
641.910300
629.213539
617.778484
607.629929
598.789901
591.277470
585.108809
580.297199
576.852959
574.783460
574.093135
574.783460
576.852960
580.297206
585.108818
591.277466
598.789910
607.629944
617.778489
629.213557
641.910298
655.841055
670.975367
687.280044
704.719235
723.254482
721.671182
703.074359
685.577269
669.218457
654.033866
640.056860
627.317932
615.844901
605.662642
596.793256
589.255876
583.066728
578.239139
574.783460
572.707088
572.014470
572.707089
574.783462
578.239146
583.066737
589.255872
596.793265
605.662657
615.844906
627.317951
640.056858
654.033879
669.218454
685.577279
703.074387
721.671190
721.143042
702.525685
685.009276
668.632401
653.431044
639.438606
626.685613
615.199914
605.006413
596.127233
588.581531
582.385549
577.552630
574.093136
572.014471
571.321089
572.014472
574.093137
577.552637
582.385559
588.581527
596.127242
605.006428
615.199919
626.685632
639.438605
653.431058
668.632399
685.009287
702.525713
721.143050
721.671182
703.074359
685.577269
669.218457
654.033866
640.056860
627.317932
615.844901
605.662642
596.793256
589.255876
583.066728
578.239139
574.783461
572.707088
572.014471
572.707089
574.783462
578.239146
583.066738
589.255872
596.793265
605.662658
615.844907
627.317951
640.056859
654.033880
669.218454
685.577280
703.074388
721.671191
723.254474
704.719208
687.280034
670.975370
655.841041
641.910300
629.213539
617.778484
607.629929
598.789901
591.277471
585.108809
580.297200
576.852960
574.783460
574.093135
574.783461
576.852961
580.297207
585.108819
591.277467
598.789911
607.629946
617.778491
629.213559
641.910300
655.841056
670.975369
687.280046
704.719237
723.254484
725.889531
707.456712
690.113927
673.899383
658.848704
644.994960
632.368376
620.996526
610.904063
602.112896
594.641988
588.507422
583.722407
580.297204
578.239143
577.552634
578.239144
580.297206
583.722414
588.507432
594.641985
602.112906
610.904080
620.996532
632.368397
644.994961
658.848719
673.899382
690.113940
707.456742
725.889541
729.570706
711.281006
694.072878
677.984229
663.050410
649.304232
636.775686
625.492131
615.478031
606.755121
599.342220
593.255286
588.507423
585.108815
583.066734
582.385555
583.066735
585.108817
588.507431
593.255296
599.342218
606.755132
615.478048
625.492138
636.775707
649.304233
663.050426
677.984230
694.072892
711.281037
729.570717
734.290102
716.183887
699.148392
683.221147
668.437145
654.828871
642.426012
631.255655
621.342018
612.706618
605.368084
599.342214
594.641983
591.277471
589.255876
588.581531
589.255877
591.277473
594.641991
599.342225
605.368082
612.706629
621.342036
631.255664
642.426034
654.828873
668.437163
683.221149
699.148408
716.183919
734.290115
740.037568
722.154807
705.329553
689.598871
674.997323
661.556992
649.307202
638.274702
628.483412
619.954584
612.706618
606.755115
602.112891
598.789901
596.793256
596.127233
596.793257
598.789903
602.112899
606.755126
612.706616
619.954596
628.483430
638.274711
649.307225
661.556996
674.997342
689.598874
705.329570
722.154841
740.037582
746.800744
729.180926
712.603067
697.103685
682.716834
669.474128
657.404455
646.534175
636.886854
628.483432
621.342038
615.478045
610.904080
607.629950
605.662663
605.006433
605.662664
607.629953
610.904088
615.478056
621.342037
628.483444
636.886873
646.534185
657.404479
669.474133
682.716855
697.103690
712.603085
729.180961
746.800759
754.564989
737.247036
720.953190
705.719345
691.578971
678.563140
666.700247
656.016197
646.534155
638.274702
631.255655
625.492125
620.996521
617.778484
615.844901
615.199913
615.844902
617.778487
620.996529
625.492136
631.255655
638.274714
646.534175
656.016208
666.700272
678.563147
691.578993
705.719352
720.953210
737.247073
754.565007
763.313522
746.335701
730.361873
715.427227
701.564577
688.804383
677.174482
666.700272
657.404461
649.307228
642.426038
636.775706
632.368398
629.213565
627.317958
626.685639
627.317960
629.213568
632.368407
636.775718
642.426039
649.307241
657.404482
666.700284
677.174508
688.804391
701.564601
715.427237
730.361896
746.335740
763.313542
773.027296
756.427134
740.808632
726.206197
712.651913
700.175560
688.804358
678.563140
669.474108
661.556992
654.828870
649.304226
644.994955
641.910299
640.056859
639.438605
640.056860
641.910302
644.994964
649.304237
654.828871
661.557006
669.474129
678.563153
688.804385
700.175570
712.651938
726.206210
740.808658
756.427176
773.027319
783.685160
767.499362
752.270722
738.032786
724.816837
712.651912
701.564553
691.578971
682.716815
674.997322
668.437144
663.050403
658.848699
655.841040
654.033865
653.431044
654.033866
655.841043
658.848708
663.050415
668.437146
674.997336
682.716837
691.578985
701.564581
712.651925
724.816865
738.032802
752.270751
767.499408
783.685188
795.263841
779.528209
764.723113
750.881168
738.032786
726.206197
715.427203
705.719344
697.103666
689.598870
683.221146
677.984223
673.899378
670.975369
669.218456
668.632401
669.218457
670.975373
673.899387
677.984235
683.221148
689.598884
697.103687
705.719359
715.427232
726.206211
738.032816
750.881187
764.723147
779.528259
795.263875
807.737898
792.487242
778.138444
764.723112
752.270721
740.808632
730.361850
720.953189
712.603048
705.329552
699.148391
694.072872
690.113922
687.280033
685.577268
685.009275
685.577269
687.280036
690.113931
694.072884
699.148393
705.329567
712.603070
720.953204
730.361879
740.808647
752.270753
764.723135
778.138483
792.487300
807.737940
821.079951
806.348020
792.487273
779.528242
767.499397
756.427169
746.335715
737.247073
729.180947
722.154845
716.183925
711.281040
707.456747
704.719247
703.074398
702.525724
703.074400
704.719250
707.456755
711.281051
716.183927
722.154859
729.180968
737.247088
746.335744
756.427185
767.499429
779.528267
792.487318
806.348088
821.080011
835.260511
821.079913
807.737898
795.263842
783.685161
773.027297
763.313502
754.564991
746.800729
740.037570
734.290103
729.570702
725.889528
723.254476
721.671183
721.143043
721.671185
723.254479
725.889537
729.570714
734.290106
740.037584
746.800749
754.565006
763.313531
773.027313
783.685193
795.263867
807.737943
821.079993
835.260599
