# vtk DataFile Version 2.0
Unstructured Grid Example
ASCII
DATASET UNSTRUCTURED_GRID

POINTS 961 float
0.1 0.005 0
0.0966667 0.005 0
0.0933333 0.005 0
0.09 0.005 0
0.0866667 0.005 0
0.0833333 0.005 0
0.08 0.005 0
0.0766667 0.005 0
0.0733333 0.005 0
0.07 0.005 0
0.0666667 0.005 0
0.0633333 0.005 0
0.06 0.005 0
0.0566667 0.005 0
0.0533333 0.005 0
0.05 0.005 0
0.0466667 0.005 0
0.0433333 0.005 0
0.04 0.005 0
0.0366667 0.005 0
0.0333333 0.005 0
0.03 0.005 0
0.0266667 0.005 0
0.0233333 0.005 0
0.02 0.005 0
0.0166667 0.005 0
0.0133333 0.005 0
0.01 0.005 0
0.00666667 0.005 0
0.00333333 0.005 0
0 0.005 0
0.1 0.00166667 0
0.0966667 0.00166667 0
0.0933333 0.00166667 0
0.09 0.00166667 0
0.0866667 0.00166667 0
0.0833333 0.00166667 0
0.08 0.00166667 0
0.0766667 0.00166667 0
0.0733333 0.00166667 0
0.07 0.00166667 0
0.0666667 0.00166667 0
0.0633333 0.00166667 0
0.06 0.00166667 0
0.0566667 0.00166667 0
0.0533333 0.00166667 0
0.05 0.00166667 0
0.0466667 0.00166667 0
0.0433333 0.00166667 0
0.04 0.00166667 0
0.0366667 0.00166667 0
0.0333333 0.00166667 0
0.03 0.00166667 0
0.0266667 0.00166667 0
0.0233333 0.00166667 0
0.02 0.00166667 0
0.0166667 0.00166667 0
0.0133333 0.00166667 0
0.01 0.00166667 0
0.00666667 0.00166667 0
0.00333333 0.00166667 0
0 0.00166667 0
0.1 -0.00166667 0
0.0966667 -0.00166667 0
0.0933333 -0.00166667 0
0.09 -0.00166667 0
0.0866667 -0.00166667 0
0.0833333 -0.00166667 0
0.08 -0.00166667 0
0.0766667 -0.00166667 0
0.0733333 -0.00166667 0
0.07 -0.00166667 0
0.0666667 -0.00166667 0
0.0633333 -0.00166667 0
0.06 -0.00166667 0
0.0566667 -0.00166667 0
0.0533333 -0.00166667 0
0.05 -0.00166667 0
0.0466667 -0.00166667 0
0.0433333 -0.00166667 0
0.04 -0.00166667 0
0.0366667 -0.00166667 0
0.0333333 -0.00166667 0
0.03 -0.00166667 0
0.0266667 -0.00166667 0
0.0233333 -0.00166667 0
0.02 -0.00166667 0
0.0166667 -0.00166667 0
0.0133333 -0.00166667 0
0.01 -0.00166667 0
0.00666667 -0.00166667 0
0.00333333 -0.00166667 0
0 -0.00166667 0
0.1 -0.005 0
0.0966667 -0.005 0
0.0933333 -0.005 0
0.09 -0.005 0
0.0866667 -0.005 0
0.0833333 -0.005 0
0.08 -0.005 0
0.0766667 -0.005 0
0.0733333 -0.005 0
0.07 -0.005 0
0.0666667 -0.005 0
0.0633333 -0.005 0
0.06 -0.005 0
0.0566667 -0.005 0
0.0533333 -0.005 0
0.05 -0.005 0
0.0466667 -0.005 0
0.0433333 -0.005 0
0.04 -0.005 0
0.0366667 -0.005 0
0.0333333 -0.005 0
0.03 -0.005 0
0.0266667 -0.005 0
0.0233333 -0.005 0
0.02 -0.005 0
0.0166667 -0.005 0
0.0133333 -0.005 0
0.01 -0.005 0
0.00666667 -0.005 0
0.00333333 -0.005 0
0 -0.005 0
0.1 -0.00833333 0
0.0966667 -0.00833333 0
0.0933333 -0.00833333 0
0.09 -0.00833333 0
0.0866667 -0.00833333 0
0.0833333 -0.00833333 0
0.08 -0.00833333 0
0.0766667 -0.00833333 0
0.0733333 -0.00833333 0
0.07 -0.00833333 0
0.0666667 -0.00833333 0
0.0633333 -0.00833333 0
0.06 -0.00833333 0
0.0566667 -0.00833333 0
0.0533333 -0.00833333 0
0.05 -0.00833333 0
0.0466667 -0.00833333 0
0.0433333 -0.00833333 0
0.04 -0.00833333 0
0.0366667 -0.00833333 0
0.0333333 -0.00833333 0
0.03 -0.00833333 0
0.0266667 -0.00833333 0
0.0233333 -0.00833333 0
0.02 -0.00833333 0
0.0166667 -0.00833333 0
0.0133333 -0.00833333 0
0.01 -0.00833333 0
0.00666667 -0.00833333 0
0.00333333 -0.00833333 0
0 -0.00833333 0
0.1 -0.0116667 0
0.0966667 -0.0116667 0
0.0933333 -0.0116667 0
0.09 -0.0116667 0
0.0866667 -0.0116667 0
0.0833333 -0.0116667 0
0.08 -0.0116667 0
0.0766667 -0.0116667 0
0.0733333 -0.0116667 0
0.07 -0.0116667 0
0.0666667 -0.0116667 0
0.0633333 -0.0116667 0
0.06 -0.0116667 0
0.0566667 -0.0116667 0
0.0533333 -0.0116667 0
0.05 -0.0116667 0
0.0466667 -0.0116667 0
0.0433333 -0.0116667 0
0.04 -0.0116667 0
0.0366667 -0.0116667 0
0.0333333 -0.0116667 0
0.03 -0.0116667 0
0.0266667 -0.0116667 0
0.0233333 -0.0116667 0
0.02 -0.0116667 0
0.0166667 -0.0116667 0
0.0133333 -0.0116667 0
0.01 -0.0116667 0
0.00666667 -0.0116667 0
0.00333333 -0.0116667 0
0 -0.0116667 0
0.1 -0.015 0
0.0966667 -0.015 0
0.0933333 -0.015 0
0.09 -0.015 0
0.0866667 -0.015 0
0.0833333 -0.015 0
0.08 -0.015 0
0.0766667 -0.015 0
0.0733333 -0.015 0
0.07 -0.015 0
0.0666667 -0.015 0
0.0633333 -0.015 0
0.06 -0.015 0
0.0566667 -0.015 0
0.0533333 -0.015 0
0.05 -0.015 0
0.0466667 -0.015 0
0.0433333 -0.015 0
0.04 -0.015 0
0.0366667 -0.015 0
0.0333333 -0.015 0
0.03 -0.015 0
0.0266667 -0.015 0
0.0233333 -0.015 0
0.02 -0.015 0
0.0166667 -0.015 0
0.0133333 -0.015 0
0.01 -0.015 0
0.00666667 -0.015 0
0.00333333 -0.015 0
0 -0.015 0
0.1 -0.0183333 0
0.0966667 -0.0183333 0
0.0933333 -0.0183333 0
0.09 -0.0183333 0
0.0866667 -0.0183333 0
0.0833333 -0.0183333 0
0.08 -0.0183333 0
0.0766667 -0.0183333 0
0.0733333 -0.0183333 0
0.07 -0.0183333 0
0.0666667 -0.0183333 0
0.0633333 -0.0183333 0
0.06 -0.0183333 0
0.0566667 -0.0183333 0
0.0533333 -0.0183333 0
0.05 -0.0183333 0
0.0466667 -0.0183333 0
0.0433333 -0.0183333 0
0.04 -0.0183333 0
0.0366667 -0.0183333 0
0.0333333 -0.0183333 0
0.03 -0.0183333 0
0.0266667 -0.0183333 0
0.0233333 -0.0183333 0
0.02 -0.0183333 0
0.0166667 -0.0183333 0
0.0133333 -0.0183333 0
0.01 -0.0183333 0
0.00666667 -0.0183333 0
0.00333333 -0.0183333 0
0 -0.0183333 0
0.1 -0.0216667 0
0.0966667 -0.0216667 0
0.0933333 -0.0216667 0
0.09 -0.0216667 0
0.0866667 -0.0216667 0
0.0833333 -0.0216667 0
0.08 -0.0216667 0
0.0766667 -0.0216667 0
0.0733333 -0.0216667 0
0.07 -0.0216667 0
0.0666667 -0.0216667 0
0.0633333 -0.0216667 0
0.06 -0.0216667 0
0.0566667 -0.0216667 0
0.0533333 -0.0216667 0
0.05 -0.0216667 0
0.0466667 -0.0216667 0
0.0433333 -0.0216667 0
0.04 -0.0216667 0
0.0366667 -0.0216667 0
0.0333333 -0.0216667 0
0.03 -0.0216667 0
0.0266667 -0.0216667 0
0.0233333 -0.0216667 0
0.02 -0.0216667 0
0.0166667 -0.0216667 0
0.0133333 -0.0216667 0
0.01 -0.0216667 0
0.00666667 -0.0216667 0
0.00333333 -0.0216667 0
0 -0.0216667 0
0.1 -0.025 0
0.0966667 -0.025 0
0.0933333 -0.025 0
0.09 -0.025 0
0.0866667 -0.025 0
0.0833333 -0.025 0
0.08 -0.025 0
0.0766667 -0.025 0
0.0733333 -0.025 0
0.07 -0.025 0
0.0666667 -0.025 0
0.0633333 -0.025 0
0.06 -0.025 0
0.0566667 -0.025 0
0.0533333 -0.025 0
0.05 -0.025 0
0.0466667 -0.025 0
0.0433333 -0.025 0
0.04 -0.025 0
0.0366667 -0.025 0
0.0333333 -0.025 0
0.03 -0.025 0
0.0266667 -0.025 0
0.0233333 -0.025 0
0.02 -0.025 0
0.0166667 -0.025 0
0.0133333 -0.025 0
0.01 -0.025 0
0.00666667 -0.025 0
0.00333333 -0.025 0
0 -0.025 0
0.1 -0.0283333 0
0.0966667 -0.0283333 0
0.0933333 -0.0283333 0
0.09 -0.0283333 0
0.0866667 -0.0283333 0
0.0833333 -0.0283333 0
0.08 -0.0283333 0
0.0766667 -0.0283333 0
0.0733333 -0.0283333 0
0.07 -0.0283333 0
0.0666667 -0.0283333 0
0.0633333 -0.0283333 0
0.06 -0.0283333 0
0.0566667 -0.0283333 0
0.0533333 -0.0283333 0
0.05 -0.0283333 0
0.0466667 -0.0283333 0
0.0433333 -0.0283333 0
0.04 -0.0283333 0
0.0366667 -0.0283333 0
0.0333333 -0.0283333 0
0.03 -0.0283333 0
0.0266667 -0.0283333 0
0.0233333 -0.0283333 0
0.02 -0.0283333 0
0.0166667 -0.0283333 0
0.0133333 -0.0283333 0
0.01 -0.0283333 0
0.00666667 -0.0283333 0
0.00333333 -0.0283333 0
0 -0.0283333 0
0.1 -0.0316667 0
0.0966667 -0.0316667 0
0.0933333 -0.0316667 0
0.09 -0.0316667 0
0.0866667 -0.0316667 0
0.0833333 -0.0316667 0
0.08 -0.0316667 0
0.0766667 -0.0316667 0
0.0733333 -0.0316667 0
0.07 -0.0316667 0
0.0666667 -0.0316667 0
0.0633333 -0.0316667 0
0.06 -0.0316667 0
0.0566667 -0.0316667 0
0.0533333 -0.0316667 0
0.05 -0.0316667 0
0.0466667 -0.0316667 0
0.0433333 -0.0316667 0
0.04 -0.0316667 0
0.0366667 -0.0316667 0
0.0333333 -0.0316667 0
0.03 -0.0316667 0
0.0266667 -0.0316667 0
0.0233333 -0.0316667 0
0.02 -0.0316667 0
0.0166667 -0.0316667 0
0.0133333 -0.0316667 0
0.01 -0.0316667 0
0.00666667 -0.0316667 0
0.00333333 -0.0316667 0
0 -0.0316667 0
0.1 -0.035 0
0.0966667 -0.035 0
0.0933333 -0.035 0
0.09 -0.035 0
0.0866667 -0.035 0
0.0833333 -0.035 0
0.08 -0.035 0
0.0766667 -0.035 0
0.0733333 -0.035 0
0.07 -0.035 0
0.0666667 -0.035 0
0.0633333 -0.035 0
0.06 -0.035 0
0.0566667 -0.035 0
0.0533333 -0.035 0
0.05 -0.035 0
0.0466667 -0.035 0
0.0433333 -0.035 0
0.04 -0.035 0
0.0366667 -0.035 0
0.0333333 -0.035 0
0.03 -0.035 0
0.0266667 -0.035 0
0.0233333 -0.035 0
0.02 -0.035 0
0.0166667 -0.035 0
0.0133333 -0.035 0
0.01 -0.035 0
0.00666667 -0.035 0
0.00333333 -0.035 0
0 -0.035 0
0.1 -0.0383333 0
0.0966667 -0.0383333 0
0.0933333 -0.0383333 0
0.09 -0.0383333 0
0.0866667 -0.0383333 0
0.0833333 -0.0383333 0
0.08 -0.0383333 0
0.0766667 -0.0383333 0
0.0733333 -0.0383333 0
0.07 -0.0383333 0
0.0666667 -0.0383333 0
0.0633333 -0.0383333 0
0.06 -0.0383333 0
0.0566667 -0.0383333 0
0.0533333 -0.0383333 0
0.05 -0.0383333 0
0.0466667 -0.0383333 0
0.0433333 -0.0383333 0
0.04 -0.0383333 0
0.0366667 -0.0383333 0
0.0333333 -0.0383333 0
0.03 -0.0383333 0
0.0266667 -0.0383333 0
0.0233333 -0.0383333 0
0.02 -0.0383333 0
0.0166667 -0.0383333 0
0.0133333 -0.0383333 0
0.01 -0.0383333 0
0.00666667 -0.0383333 0
0.00333333 -0.0383333 0
0 -0.0383333 0
0.1 -0.0416667 0
0.0966667 -0.0416667 0
0.0933333 -0.0416667 0
0.09 -0.0416667 0
0.0866667 -0.0416667 0
0.0833333 -0.0416667 0
0.08 -0.0416667 0
0.0766667 -0.0416667 0
0.0733333 -0.0416667 0
0.07 -0.0416667 0
0.0666667 -0.0416667 0
0.0633333 -0.0416667 0
0.06 -0.0416667 0
0.0566667 -0.0416667 0
0.0533333 -0.0416667 0
0.05 -0.0416667 0
0.0466667 -0.0416667 0
0.0433333 -0.0416667 0
0.04 -0.0416667 0
0.0366667 -0.0416667 0
0.0333333 -0.0416667 0
0.03 -0.0416667 0
0.0266667 -0.0416667 0
0.0233333 -0.0416667 0
0.02 -0.0416667 0
0.0166667 -0.0416667 0
0.0133333 -0.0416667 0
0.01 -0.0416667 0
0.00666667 -0.0416667 0
0.00333333 -0.0416667 0
0 -0.0416667 0
0.1 -0.045 0
0.0966667 -0.045 0
0.0933333 -0.045 0
0.09 -0.045 0
0.0866667 -0.045 0
0.0833333 -0.045 0
0.08 -0.045 0
0.0766667 -0.045 0
0.0733333 -0.045 0
0.07 -0.045 0
0.0666667 -0.045 0
0.0633333 -0.045 0
0.06 -0.045 0
0.0566667 -0.045 0
0.0533333 -0.045 0
0.05 -0.045 0
0.0466667 -0.045 0
0.0433333 -0.045 0
0.04 -0.045 0
0.0366667 -0.045 0
0.0333333 -0.045 0
0.03 -0.045 0
0.0266667 -0.045 0
0.0233333 -0.045 0
0.02 -0.045 0
0.0166667 -0.045 0
0.0133333 -0.045 0
0.01 -0.045 0
0.00666667 -0.045 0
0.00333333 -0.045 0
0 -0.045 0
0.1 -0.0483333 0
0.0966667 -0.0483333 0
0.0933333 -0.0483333 0
0.09 -0.0483333 0
0.0866667 -0.0483333 0
[...]
POINT_DATA 961
SCALARS Temp float 1
LOOKUP_TABLE default
1107.226030
1103.618904
1100.224693
1097.050884
1094.104483
1091.392011
1088.919449
1086.692270
1084.715384
1082.993165
1081.529415
1080.327364
1079.389671
1078.718408
1078.315056
1078.180506
1078.315056
1078.718409
1079.389673
1080.327366
1081.529414
1082.993167
1084.715387
1086.692272
1088.919454
1091.392012
1094.104487
1097.050885
1100.224698
1103.618915
1107.226038
1103.618910
1099.871535
1096.345352
1093.048143
1089.987183
1087.169249
1084.600552
1082.286779
1080.233029
1078.443850
1076.923187
1075.674400
1074.700249
1074.002887
1073.583852
1073.444071
1073.583852
1074.002887
1074.700251
1075.674402
1076.923187
1078.443852
1080.233033
1082.286780
1084.600557
1087.169250
1089.987188
1093.048144
1096.345357
1099.871544
1103.618915
1100.224694
1096.345349
1092.694986
1089.281659
1086.112903
1083.195730
1080.536572
1078.141315
1076.015240
1074.163051
1072.588837
1071.296071
1070.287614
1069.565693
1069.131901
1068.987197
1069.131901
1069.565693
1070.287615
1071.296073
1072.588836
1074.163054
1076.015243
1078.141317
1080.536577
1083.195731
1086.112907
1089.281660
1092.694990
1096.345357
1100.224698
1097.050882
1093.048136
1089.281656
1085.759753
1082.490200
1079.480233
1076.736488
1074.265039
1072.071334
1070.160228
1068.535938
1067.202050
1066.161514
1065.416629
1064.969038
1064.819732
1064.969039
1065.416630
1066.161516
1067.202052
1068.535938
1070.160230
1072.071337
1074.265041
1076.736493
1079.480233
1082.490204
1085.759754
1089.281660
1093.048144
1097.050885
1094.104484
1089.987180
1086.112903
1082.490203
1079.127075
1076.030963
1073.208693
1070.666511
1068.410022
1066.444220
1064.773443
1063.401379
1062.331064
1061.564860
1061.104459
1060.950879
1061.104459
1061.564860
1062.331065
1063.401381
1064.773443
1066.444223
1068.410026
1070.666513
1073.208698
1076.030964
1079.127079
1082.490204
1086.112907
1089.987188
1094.104487
1091.392010
1087.169243
1083.195728
1079.480234
1076.030961
1072.855543
1069.960981
1067.353682
1065.039394
1063.023239
1061.309666
1059.902456
1058.804725
1058.018895
1057.546702
1057.389188
1057.546702
1058.018896
1058.804727
1059.902459
1061.309665
1063.023241
1065.039397
1067.353683
1069.960986
1072.855543
1076.030965
1079.480234
1083.195732
1087.169250
1091.392013
1088.919452
1084.600549
1080.536574
1076.736493
1073.208694
1069.960985
1067.000526
1064.333869
1061.966894
1059.904839
1058.152255
1056.713010
1055.590287
1054.786568
1054.303624
1054.142524
1054.303624
1054.786568
1055.590289
1056.713012
1058.152254
1059.904842
1061.966898
1064.333871
1067.000530
1069.960985
1073.208698
1076.736493
1080.536577
1084.600557
1088.919454
1086.692270
1082.286774
1078.141315
1074.265042
1070.666510
1067.353683
1064.333867
1061.613743
1059.199310
1057.095911
1055.308187
1053.840084
1052.694851
1051.875017
1051.382390
1051.218060
1051.382390
1051.875017
1052.694853
1053.840087
1055.308186
1057.095913
1059.199314
1061.613745
1064.333871
1067.353684
1070.666513
1074.265042
1078.141318
1082.286781
1086.692273
1084.715386
1080.233026
1076.015241
1072.071339
1068.410023
1065.039398
1061.966894
1059.199312
1056.742754
1054.602657
1052.783743
1051.290026
1050.124812
1049.290674
1048.789452
1048.622255
1048.789452
1049.290674
1050.124814
1051.290028
1052.783742
1054.602659
1056.742758
1059.199314
1061.966899
1065.039398
1068.410027
1072.071339
1076.015244
1080.233033
1084.715388
1082.993165
1078.443844
1074.163051
1070.160231
1066.444219
1063.023240
1059.904837
1057.095911
1054.602654
1052.430587
1050.584500
1049.068469
1047.885848
1047.039249
1046.530539
1046.360845
1046.530539
1047.039249
1047.885850
1049.068471
1050.584499
1052.430589
1054.602658
1057.095912
1059.904842
1063.023240
1066.444223
1070.160230
1074.163054
1078.443852
1082.993168
1081.529413
1076.923181
1072.588834
1068.535939
1064.773440
1061.309665
1058.152251
1055.308185
1052.783738
1050.584498
1048.715316
1047.180320
1045.982905
1045.125714
1044.610641
1044.438823
1044.610641
1045.125715
1045.982906
1047.180322
1048.715316
1050.584500
1052.783742
1055.308186
1058.152255
1061.309665
1064.773444
1068.535939
1072.588837
1076.923188
1081.529416
1080.327364
1075.674395
1071.296070
1067.202053
1063.401378
1059.902459
1056.713007
1053.840085
1051.290024
1049.068469
1047.180322
1045.629751
1044.420186
1043.554299
1043.033999
1042.860438
1043.033999
1043.554299
1044.420188
1045.629754
1047.180322
1049.068472
1051.290028
1053.840086
1056.713012
1059.902458
1063.401382
1067.202053
1071.296073
1075.674402
1080.327366
1079.389672
1074.700244
1070.287613
1066.161517
1062.331062
1058.804727
1055.590285
1052.694852
1050.124810
1047.885848
1045.982907
1044.420186
1043.201144
1042.328471
1041.804095
1041.629174
1041.804095
1042.328472
1043.201146
1044.420188
1045.982906
1047.885851
1050.124814
1052.694853
1055.590290
1058.804727
1062.331066
1066.161517
1070.287616
1074.700251
1079.389674
1078.718408
1074.002881
1069.565691
1065.416632
1061.564858
1058.018896
1054.786564
1051.875016
1049.290671
1047.039248
1045.125716
1043.554297
1042.328470
1041.450941
1040.923647
1040.747752
1040.923647
1041.450942
1042.328472
1043.554300
1045.125715
1047.039250
1049.290675
1051.875018
1054.786569
1058.018896
1061.564862
1065.416631
1069.565694
1074.002888
1078.718410
1078.315055
1073.583846
1069.131899
1064.969041
1061.104457
1057.546703
1054.303621
1051.382389
1048.789449
1046.530539
1044.610642
1043.033998
1041.804094
1040.923647
1040.394598
1040.218119
1040.394599
1040.923647
1041.804096
1043.034001
1044.610642
1046.530541
1048.789453
1051.382391
1054.303626
1057.546703
1061.104461
1064.969040
1069.131902
1073.583853
1078.315058
1078.180506
1073.444065
1068.987196
1064.819734
1060.950877
1057.389189
1054.142521
1051.218060
1048.622252
1046.360844
1044.438825
1042.860437
1041.629174
1040.747752
1040.218119
1040.041445
1040.218119
1040.747753
1041.629175
1042.860440
1044.438824
1046.360847
1048.622256
1051.218061
1054.142526
1057.389189
1060.950881
1064.819734
1068.987199
1073.444072
1078.180508
1078.315055
1073.583846
1069.131899
1064.969041
1061.104457
1057.546703
1054.303621
1051.382389
1048.789449
1046.530539
1044.610642
1043.033998
1041.804094
1040.923647
1040.394598
1040.218119
1040.394599
1040.923647
1041.804096
1043.034001
1044.610642
1046.530541
1048.789453
1051.382391
1054.303626
1057.546703
1061.104461
1064.969041
1069.131903
1073.583854
1078.315058
1078.718408
1074.002881
1069.565691
1065.416631
1061.564858
1058.018896
1054.786564
1051.875016
1049.290671
1047.039248
1045.125716
1043.554298
1042.328471
1041.450941
1040.923647
1040.747752
1040.923647
1041.450942
1042.328473
1043.554300
1045.125715
1047.039251
1049.290675
1051.875018
1054.786570
1058.018897
1061.564862
1065.416631
1069.565695
1074.002889
1078.718410
1079.389672
1074.700244
1070.287613
1066.161517
1062.331062
1058.804727
1055.590285
1052.694852
1050.124810
1047.885848
1045.982907
1044.420186
1043.201144
1042.328472
1041.804095
1041.629175
1041.804096
1042.328472
1043.201146
1044.420189
1045.982906
1047.885851
1050.124814
1052.694854
1055.590291
1058.804727
1062.331067
1066.161518
1070.287617
1074.700252
1079.389675
1080.327364
1075.674395
1071.296070
1067.202053
1063.401378
1059.902458
1056.713007
1053.840085
1051.290024
1049.068469
1047.180323
1045.629751
1044.420187
1043.554299
1043.034000
1042.860439
1043.034000
1043.554300
1044.420189
1045.629754
1047.180322
1049.068472
1051.290029
1053.840087
1056.713013
1059.902459
1063.401383
1067.202054
1071.296074
1075.674403
1080.327367
1081.529414
1076.923181
1072.588835
1068.535940
1064.773441
1061.309666
1058.152251
1055.308186
1052.783739
1050.584499
1048.715318
1047.180321
1045.982906
1045.125716
1044.610642
1044.438825
1044.610643
1045.125716
1045.982908
1047.180324
1048.715317
1050.584502
1052.783744
1055.308188
1058.152257
1061.309667
1064.773446
1068.535941
1072.588839
1076.923190
1081.529418
1082.993164
1078.443843
1074.163049
1070.160230
1066.444218
1063.023239
1059.904836
1057.095910
1054.602653
1052.430586
1050.584499
1049.068468
1047.885847
1047.039248
1046.530539
1046.360844
1046.530539
1047.039249
1047.885849
1049.068471
1050.584499
1052.430589
1054.602658
1057.095912
1059.904842
1063.023241
1066.444223
1070.160231
1074.163054
1078.443852
1082.993168
1084.715386
1080.233027
1076.015242
1072.071340
1068.410024
1065.039399
1061.966895
1059.199313
1056.742756
1054.602659
1052.783744
1051.290028
1050.124814
1049.290676
1048.789454
1048.622257
1048.789455
1049.290677
1050.124816
1051.290031
1052.783744
1054.602662
1056.742761
1059.199316
1061.966901
1065.039400
1068.410029
1072.071341
1076.015247
1080.233036
1084.715391
1086.692269
1082.286772
1078.141313
1074.265040
1070.666508
1067.353682
1064.333865
1061.613742
1059.199308
1057.095910
1055.308186
1053.840083
1052.694850
1051.875016
1051.382389
1051.218060
1051.382390
1051.875017
1052.694853
1053.840086
1055.308186
1057.095913
1059.199314
1061.613745
1064.333872
1067.353684
1070.666514
1074.265042
1078.141319
1082.286782
1086.692274
1088.919453
1084.600551
1080.536575
1076.736495
1073.208696
1069.960987
1067.000528
1064.333871
1061.966896
1059.904842
1058.152258
1056.713013
1055.590291
1054.786571
1054.303627
1054.142528
1054.303628
1054.786572
1055.590293
1056.713016
1058.152258
1059.904846
1061.966902
1064.333875
1067.000535
1069.960989
1073.208702
1076.736498
1080.536582
1084.600561
1088.919458
1091.392009
1087.169242
1083.195727
1079.480233
1076.030960
1072.855542
1069.960981
1067.353682
1065.039394
1063.023239
1061.309666
1059.902457
1058.804726
1058.018896
1057.546703
1057.389189
1057.546703
1058.018897
1058.804728
1059.902460
1061.309666
1063.023243
1065.039399
1067.353685
1069.960988
1072.855545
1076.030967
1079.480237
1083.195734
1087.169253
1091.392016
1094.104480
1089.987176
1086.112900
1082.490200
1079.127072
1076.030960
1073.208690
1070.666508
1068.410019
1066.444218
1064.773441
1063.401377
1062.331061
1061.564858
1061.104457
1060.950877
1061.104458
1061.564859
1062.331064
1063.401380
1064.773441
1066.444221
1068.410025
1070.666512
1073.208697
1076.030964
1079.127079
1082.490204
1086.112908
1089.987188
1094.104488
1097.050881
1093.048136
1089.281656
1085.759753
1082.490200
1079.480233
1076.736489
1074.265040
1072.071335
1070.160229
1068.535940
1067.202052
1066.161516
1065.416631
1064.969041
1064.819734
1064.969041
1065.416632
1066.161519
1067.202055
1068.535941
1070.160233
1072.071341
1074.265044
1076.736497
1079.480237
1082.490208
1085.759758
1089.281665
1093.048149
1097.050890
1100.224690
1096.345345
1092.694982
1089.281656
1086.112900
1083.195727
1080.536570
1078.141313
1076.015237
1074.163049
1072.588835
1071.296069
1070.287612
1069.565691
1069.131899
1068.987196
1069.131900
1069.565692
1070.287614
1071.296072
1072.588835
1074.163053
1076.015243
1078.141317
1080.536577
1083.195731
1086.112908
1089.281662
1092.694992
1096.345360
1100.224701
1103.618909
1099.871534
1096.345353
1093.048144
1089.987185
1087.169251
1084.600555
1082.286781
1080.233032
1078.443853
1076.923191
1075.674403
1074.700253
1074.002891
1073.583856
1073.444075
1073.583856
1074.002892
1074.700255
1075.674406
1076.923192
1078.443857
1080.233038
1082.286786
1084.600562
1087.169256
1089.987194
1093.048151
1096.345364
1099.871552
1103.618924
1107.226023
1103.618899
1100.224690
1097.050881
1094.104481
1091.392009
1088.919448
1086.692269
1084.715383
1082.993165
1081.529414
1080.327363
1079.389671
1078.718408
1078.315056
1078.180506
1078.315056
1078.718409
1079.389673
1080.327366
1081.529415
1082.993168
1084.715388
1086.692273
1088.919455
1091.392014
1094.104489
1097.050888
1100.224701
1103.618920
1107.226046
