# vtk DataFile Version 2.0
Unstructured Grid Example
ASCII
DATASET UNSTRUCTURED_GRID

POINTS 961 float
0.1 0.005 0
0.0966667 0.005 0
0.0933333 0.005 0
0.09 0.005 0
0.0866667 0.005 0
0.0833333 0.005 0
0.08 0.005 0
0.0766667 0.005 0
0.0733333 0.005 0
0.07 0.005 0
0.0666667 0.005 0
0.0633333 0.005 0
0.06 0.005 0
0.0566667 0.005 0
0.0533333 0.005 0
0.05 0.005 0
0.0466667 0.005 0
0.0433333 0.005 0
0.04 0.005 0
0.0366667 0.005 0
0.0333333 0.005 0
0.03 0.005 0
0.0266667 0.005 0
0.0233333 0.005 0
0.02 0.005 0
0.0166667 0.005 0
0.0133333 0.005 0
0.01 0.005 0
0.00666667 0.005 0
0.00333333 0.005 0
0 0.005 0
0.1 0.00166667 0
0.0966667 0.00166667 0
0.0933333 0.00166667 0
0.09 0.00166667 0
0.0866667 0.00166667 0
0.0833333 0.00166667 0
0.08 0.00166667 0
0.0766667 0.00166667 0
0.0733333 0.00166667 0
0.07 0.00166667 0
0.0666667 0.00166667 0
0.0633333 0.00166667 0
0.06 0.00166667 0
0.0566667 0.00166667 0
0.0533333 0.00166667 0
0.05 0.00166667 0
0.0466667 0.00166667 0
0.0433333 0.00166667 0
0.04 0.00166667 0
0.0366667 0.00166667 0
0.0333333 0.00166667 0
0.03 0.00166667 0
0.0266667 0.00166667 0
0.0233333 0.00166667 0
0.02 0.00166667 0
0.0166667 0.00166667 0
0.0133333 0.00166667 0
0.01 0.00166667 0
0.00666667 0.00166667 0
0.00333333 0.00166667 0
0 0.00166667 0
0.1 -0.00166667 0
0.0966667 -0.00166667 0
0.0933333 -0.00166667 0
0.09 -0.00166667 0
0.0866667 -0.00166667 0
0.0833333 -0.00166667 0
0.08 -0.00166667 0
0.0766667 -0.00166667 0
0.0733333 -0.00166667 0
0.07 -0.00166667 0
0.0666667 -0.00166667 0
0.0633333 -0.00166667 0
0.06 -0.00166667 0
0.0566667 -0.00166667 0
0.0533333 -0.00166667 0
0.05 -0.00166667 0
0.0466667 -0.00166667 0
0.0433333 -0.00166667 0
0.04 -0.00166667 0
0.0366667 -0.00166667 0
0.0333333 -0.00166667 0
0.03 -0.00166667 0
0.0266667 -0.00166667 0
0.0233333 -0.00166667 0
0.02 -0.00166667 0
0.0166667 -0.00166667 0
0.0133333 -0.00166667 0
0.01 -0.00166667 0
0.00666667 -0.00166667 0
0.00333333 -0.00166667 0
0 -0.00166667 0
0.1 -0.005 0
0.0966667 -0.005 0
0.0933333 -0.005 0
0.09 -0.005 0
0.0866667 -0.005 0
0.0833333 -0.005 0
0.08 -0.005 0
0.0766667 -0.005 0
0.0733333 -0.005 0
0.07 -0.005 0
0.0666667 -0.005 0
0.0633333 -0.005 0
0.06 -0.005 0
0.0566667 -0.005 0
0.0533333 -0.005 0
0.05 -0.005 0
0.0466667 -0.005 0
0.0433333 -0.005 0
0.04 -0.005 0
0.0366667 -0.005 0
0.0333333 -0.005 0
0.03 -0.005 0
0.0266667 -0.005 0
0.0233333 -0.005 0
0.02 -0.005 0
0.0166667 -0.005 0
0.0133333 -0.005 0
0.01 -0.005 0
0.00666667 -0.005 0
0.00333333 -0.005 0
0 -0.005 0
0.1 -0.00833333 0
0.0966667 -0.00833333 0
0.0933333 -0.00833333 0
0.09 -0.00833333 0
0.0866667 -0.00833333 0
0.0833333 -0.00833333 0
0.08 -0.00833333 0
0.0766667 -0.00833333 0
0.0733333 -0.00833333 0
0.07 -0.00833333 0
0.0666667 -0.00833333 0
0.0633333 -0.00833333 0
0.06 -0.00833333 0
0.0566667 -0.00833333 0
0.0533333 -0.00833333 0
0.05 -0.00833333 0
0.0466667 -0.00833333 0
0.0433333 -0.00833333 0
0.04 -0.00833333 0
0.0366667 -0.00833333 0
0.0333333 -0.00833333 0
0.03 -0.00833333 0
0.0266667 -0.00833333 0
0.0233333 -0.00833333 0
0.02 -0.00833333 0
0.0166667 -0.00833333 0
0.0133333 -0.00833333 0
0.01 -0.00833333 0
0.00666667 -0.00833333 0
0.00333333 -0.00833333 0
0 -0.00833333 0
0.1 -0.0116667 0
0.0966667 -0.0116667 0
0.0933333 -0.0116667 0
0.09 -0.0116667 0
0.0866667 -0.0116667 0
0.0833333 -0.0116667 0
0.08 -0.0116667 0
0.0766667 -0.0116667 0
0.0733333 -0.0116667 0
0.07 -0.0116667 0
0.0666667 -0.0116667 0
0.0633333 -0.0116667 0
0.06 -0.0116667 0
0.0566667 -0.0116667 0
0.0533333 -0.0116667 0
0.05 -0.0116667 0
0.0466667 -0.0116667 0
0.0433333 -0.0116667 0
0.04 -0.0116667 0
0.0366667 -0.0116667 0
0.0333333 -0.0116667 0
0.03 -0.0116667 0
0.0266667 -0.0116667 0
0.0233333 -0.0116667 0
0.02 -0.0116667 0
0.0166667 -0.0116667 0
0.0133333 -0.0116667 0
0.01 -0.0116667 0
0.00666667 -0.0116667 0
0.00333333 -0.0116667 0
0 -0.0116667 0
0.1 -0.015 0
0.0966667 -0.015 0
0.0933333 -0.015 0
0.09 -0.015 0
0.0866667 -0.015 0
0.0833333 -0.015 0
0.08 -0.015 0
0.0766667 -0.015 0
0.0733333 -0.015 0
0.07 -0.015 0
0.0666667 -0.015 0
0.0633333 -0.015 0
0.06 -0.015 0
0.0566667 -0.015 0
0.0533333 -0.015 0
0.05 -0.015 0
0.0466667 -0.015 0
0.0433333 -0.015 0
0.04 -0.015 0
0.0366667 -0.015 0
0.0333333 -0.015 0
0.03 -0.015 0
0.0266667 -0.015 0
0.0233333 -0.015 0
0.02 -0.015 0
0.0166667 -0.015 0
0.0133333 -0.015 0
0.01 -0.015 0
0.00666667 -0.015 0
0.00333333 -0.015 0
0 -0.015 0
0.1 -0.0183333 0
0.0966667 -0.0183333 0
0.0933333 -0.0183333 0
0.09 -0.0183333 0
0.0866667 -0.0183333 0
0.0833333 -0.0183333 0
0.08 -0.0183333 0
0.0766667 -0.0183333 0
0.0733333 -0.0183333 0
0.07 -0.0183333 0
0.0666667 -0.0183333 0
0.0633333 -0.0183333 0
0.06 -0.0183333 0
0.0566667 -0.0183333 0
0.0533333 -0.0183333 0
0.05 -0.0183333 0
0.0466667 -0.0183333 0
0.0433333 -0.0183333 0
0.04 -0.0183333 0
0.0366667 -0.0183333 0
0.0333333 -0.0183333 0
0.03 -0.0183333 0
0.0266667 -0.0183333 0
0.0233333 -0.0183333 0
0.02 -0.0183333 0
0.0166667 -0.0183333 0
0.0133333 -0.0183333 0
0.01 -0.0183333 0
0.00666667 -0.0183333 0
0.00333333 -0.0183333 0
0 -0.0183333 0
0.1 -0.0216667 0
0.0966667 -0.0216667 0
0.0933333 -0.0216667 0
0.09 -0.0216667 0
0.0866667 -0.0216667 0
0.0833333 -0.0216667 0
0.08 -0.0216667 0
0.0766667 -0.0216667 0
0.0733333 -0.0216667 0
0.07 -0.0216667 0
0.0666667 -0.0216667 0
0.0633333 -0.0216667 0
0.06 -0.0216667 0
0.0566667 -0.0216667 0
0.0533333 -0.0216667 0
0.05 -0.0216667 0
0.0466667 -0.0216667 0
0.0433333 -0.0216667 0
0.04 -0.0216667 0
0.0366667 -0.0216667 0
0.0333333 -0.0216667 0
0.03 -0.0216667 0
0.0266667 -0.0216667 0
0.0233333 -0.0216667 0
0.02 -0.0216667 0
0.0166667 -0.0216667 0
0.0133333 -0.0216667 0
0.01 -0.0216667 0
0.00666667 -0.0216667 0
0.00333333 -0.0216667 0
0 -0.0216667 0
0.1 -0.025 0
0.0966667 -0.025 0
0.0933333 -0.025 0
0.09 -0.025 0
0.0866667 -0.025 0
0.0833333 -0.025 0
0.08 -0.025 0
0.0766667 -0.025 0
0.0733333 -0.025 0
0.07 -0.025 0
0.0666667 -0.025 0
0.0633333 -0.025 0
0.06 -0.025 0
0.0566667 -0.025 0
0.0533333 -0.025 0
0.05 -0.025 0
0.0466667 -0.025 0
0.0433333 -0.025 0
0.04 -0.025 0
0.0366667 -0.025 0
0.0333333 -0.025 0
0.03 -0.025 0
0.0266667 -0.025 0
0.0233333 -0.025 0
0.02 -0.025 0
0.0166667 -0.025 0
0.0133333 -0.025 0
0.01 -0.025 0
0.00666667 -0.025 0
0.00333333 -0.025 0
0 -0.025 0
0.1 -0.0283333 0
0.0966667 -0.0283333 0
0.0933333 -0.0283333 0
0.09 -0.0283333 0
0.0866667 -0.0283333 0
0.0833333 -0.0283333 0
0.08 -0.0283333 0
0.0766667 -0.0283333 0
0.0733333 -0.0283333 0
0.07 -0.0283333 0
0.0666667 -0.0283333 0
0.0633333 -0.0283333 0
0.06 -0.0283333 0
0.0566667 -0.0283333 0
0.0533333 -0.0283333 0
0.05 -0.0283333 0
0.0466667 -0.0283333 0
0.0433333 -0.0283333 0
0.04 -0.0283333 0
0.0366667 -0.0283333 0
0.0333333 -0.0283333 0
0.03 -0.0283333 0
0.0266667 -0.0283333 0
0.0233333 -0.0283333 0
0.02 -0.0283333 0
0.0166667 -0.0283333 0
0.0133333 -0.0283333 0
0.01 -0.0283333 0
0.00666667 -0.0283333 0
0.00333333 -0.0283333 0
0 -0.0283333 0
0.1 -0.0316667 0
0.0966667 -0.0316667 0
0.0933333 -0.0316667 0
0.09 -0.0316667 0
0.0866667 -0.0316667 0
0.0833333 -0.0316667 0
0.08 -0.0316667 0
0.0766667 -0.0316667 0
0.0733333 -0.0316667 0
0.07 -0.0316667 0
0.0666667 -0.0316667 0
0.0633333 -0.0316667 0
0.06 -0.0316667 0
0.0566667 -0.0316667 0
0.0533333 -0.0316667 0
0.05 -0.0316667 0
0.0466667 -0.0316667 0
0.0433333 -0.0316667 0
0.04 -0.0316667 0
0.0366667 -0.0316667 0
0.0333333 -0.0316667 0
0.03 -0.0316667 0
0.0266667 -0.0316667 0
0.0233333 -0.0316667 0
0.02 -0.0316667 0
0.0166667 -0.0316667 0
0.0133333 -0.0316667 0
0.01 -0.0316667 0
0.00666667 -0.0316667 0
0.00333333 -0.0316667 0
0 -0.0316667 0
0.1 -0.035 0
0.0966667 -0.035 0
0.0933333 -0.035 0
0.09 -0.035 0
0.0866667 -0.035 0
0.0833333 -0.035 0
0.08 -0.035 0
0.0766667 -0.035 0
0.0733333 -0.035 0
0.07 -0.035 0
0.0666667 -0.035 0
0.0633333 -0.035 0
0.06 -0.035 0
0.0566667 -0.035 0
0.0533333 -0.035 0
0.05 -0.035 0
0.0466667 -0.035 0
0.0433333 -0.035 0
0.04 -0.035 0
0.0366667 -0.035 0
0.0333333 -0.035 0
0.03 -0.035 0
0.0266667 -0.035 0
0.0233333 -0.035 0
0.02 -0.035 0
0.0166667 -0.035 0
0.0133333 -0.035 0
0.01 -0.035 0
0.00666667 -0.035 0
0.00333333 -0.035 0
0 -0.035 0
0.1 -0.0383333 0
0.0966667 -0.0383333 0
0.0933333 -0.0383333 0
0.09 -0.0383333 0
0.0866667 -0.0383333 0
0.0833333 -0.0383333 0
0.08 -0.0383333 0
0.0766667 -0.0383333 0
0.0733333 -0.0383333 0
0.07 -0.0383333 0
0.0666667 -0.0383333 0
0.0633333 -0.0383333 0
0.06 -0.0383333 0
0.0566667 -0.0383333 0
0.0533333 -0.0383333 0
0.05 -0.0383333 0
0.0466667 -0.0383333 0
0.0433333 -0.0383333 0
0.04 -0.0383333 0
0.0366667 -0.0383333 0
0.0333333 -0.0383333 0
0.03 -0.0383333 0
0.0266667 -0.0383333 0
0.0233333 -0.0383333 0
0.02 -0.0383333 0
0.0166667 -0.0383333 0
0.0133333 -0.0383333 0
0.01 -0.0383333 0
0.00666667 -0.0383333 0
0.00333333 -0.0383333 0
0 -0.0383333 0
0.1 -0.0416667 0
0.0966667 -0.0416667 0
0.0933333 -0.0416667 0
0.09 -0.0416667 0
0.0866667 -0.0416667 0
0.0833333 -0.0416667 0
0.08 -0.0416667 0
0.0766667 -0.0416667 0
0.0733333 -0.0416667 0
0.07 -0.0416667 0
0.0666667 -0.0416667 0
0.0633333 -0.0416667 0
0.06 -0.0416667 0
0.0566667 -0.0416667 0
0.0533333 -0.0416667 0
0.05 -0.0416667 0
0.0466667 -0.0416667 0
0.0433333 -0.0416667 0
0.04 -0.0416667 0
0.0366667 -0.0416667 0
0.0333333 -0.0416667 0
0.03 -0.0416667 0
0.0266667 -0.0416667 0
0.0233333 -0.0416667 0
0.02 -0.0416667 0
0.0166667 -0.0416667 0
0.0133333 -0.0416667 0
0.01 -0.0416667 0
0.00666667 -0.0416667 0
0.00333333 -0.0416667 0
0 -0.0416667 0
0.1 -0.045 0
0.0966667 -0.045 0
0.0933333 -0.045 0
0.09 -0.045 0
0.0866667 -0.045 0
0.0833333 -0.045 0
0.08 -0.045 0
0.0766667 -0.045 0
0.0733333 -0.045 0
0.07 -0.045 0
0.0666667 -0.045 0
0.0633333 -0.045 0
0.06 -0.045 0
0.0566667 -0.045 0
0.0533333 -0.045 0
0.05 -0.045 0
0.0466667 -0.045 0
0.0433333 -0.045 0
0.04 -0.045 0
0.0366667 -0.045 0
0.0333333 -0.045 0
0.03 -0.045 0
0.0266667 -0.045 0
0.0233333 -0.045 0
0.02 -0.045 0
0.0166667 -0.045 0
0.0133333 -0.045 0
0.01 -0.045 0
0.00666667 -0.045 0
0.00333333 -0.045 0
0 -0.045 0
0.1 -0.0483333 0
0.0966667 -0.0483333 0
0.0933333 -0.0483333 0
0.09 -0.0483333 0
0.0866667 -0.0483333 0
[...]
POINT_DATA 961
SCALARS Temp float 1
LOOKUP_TABLE default
821.762737
807.057702
793.222976
780.289003
768.284149
757.234705
747.164667
738.095893
730.047898
723.037998
717.081162
712.190069
708.375122
705.644393
704.003646
703.456347
704.003647
705.644394
708.375127
712.190076
717.081159
723.038006
730.047911
738.095899
747.164685
757.234708
768.284165
780.289008
793.222996
807.057745
821.762770
807.057725
791.780985
777.408389
763.971571
751.499994
740.020973
729.559434
720.138086
711.777203
704.494773
698.306348
693.225101
689.261837
686.424943
684.720408
684.151830
684.720409
686.424945
689.261842
693.225108
698.306345
704.494781
711.777217
720.138092
729.559452
740.020975
751.500011
763.971576
777.408408
791.781022
807.057746
793.222980
777.408375
762.529744
748.619840
735.709162
723.825986
712.996116
703.243060
694.587806
687.048976
680.642668
675.382519
671.279716
668.342941
666.578392
665.989796
666.578393
668.342942
671.279722
675.382527
680.642665
687.048984
694.587820
703.243066
712.996134
723.825988
735.709178
748.619843
762.529761
777.408408
793.222997
780.288994
763.971543
748.619827
734.267639
720.946449
708.685432
697.511212
687.448045
678.517586
670.739049
664.129045
658.701642
654.468385
651.438232
649.617577
649.010266
649.617578
651.438233
654.468391
658.701651
664.129041
670.739057
678.517600
687.448051
697.511231
708.685433
720.946465
734.267641
748.619843
763.971575
780.289008
768.284153
751.499980
735.709164
720.946465
707.244253
694.632538
683.138706
672.787705
663.601811
655.600787
648.801718
643.219078
638.864739
635.747915
633.875184
633.250502
633.875185
635.747916
638.864745
643.219086
648.801715
655.600795
663.601825
672.787711
683.138724
694.632538
707.244268
720.946465
735.709178
751.500010
768.284165
757.234701
740.020949
723.825978
708.685438
694.632527
681.698024
669.910015
659.294088
649.873087
641.667282
634.694197
628.968672
624.502886
621.306290
619.385628
618.744957
619.385629
621.306291
624.502893
628.968681
634.694193
641.667291
649.873102
659.294093
669.910034
681.698024
694.632542
708.685437
723.825991
740.020978
757.234711
747.164677
729.559424
712.996123
697.511233
683.138711
669.910031
657.853922
646.996551
637.361283
628.968849
621.837171
615.981428
611.414075
608.144776
606.180432
605.525190
606.180432
608.144777
611.414081
615.981437
621.837167
628.968858
637.361298
646.996556
657.853940
669.910031
683.138725
697.511232
712.996134
729.559452
747.164686
738.095894
720.138067
703.243058
687.448057
672.787701
659.294094
646.996541
635.921733
626.093503
617.532996
610.258493
604.285479
599.626657
596.291885
594.288201
593.619837
594.288202
596.291886
599.626663
604.285488
610.258489
617.533004
626.093517
635.921737
646.996559
659.294093
672.787714
687.448055
703.243069
720.138095
738.095903
730.047907
711.777192
694.587812
678.517607
663.601816
649.873103
637.361283
626.093512
616.094040
607.384379
599.983129
593.906044
589.166048
585.773172
583.734577
583.054568
583.734578
585.773173
589.166054
593.906052
599.983124
607.384387
616.094054
626.093517
637.361301
649.873102
663.601829
678.517604
694.587823
711.777219
730.047915
723.037999
704.494753
687.048973
670.739061
655.600782
641.667289
628.968839
617.532995
607.384368
598.544791
591.033143
584.865410
580.054711
576.611226
574.542223
573.852071
574.542224
576.611228
580.054717
584.865419
591.033138
598.544800
607.384383
617.533000
628.968857
641.667286
655.600795
670.739057
687.048983
704.494780
723.038006
717.081156
698.306321
680.642658
664.129050
648.801706
634.694196
621.837153
610.258485
599.983110
591.033135
583.427672
577.182909
572.312128
568.825637
566.730794
566.032022
566.730795
568.825639
572.312135
577.182918
583.427667
591.033143
599.983125
610.258490
621.837171
634.694193
648.801719
664.129046
680.642668
698.306349
717.081163
712.190071
693.225082
675.382518
658.701657
643.219075
628.968681
615.981420
604.285481
593.906035
584.865413
577.182920
570.874909
565.954796
562.432993
560.316933
559.611084
560.316934
562.432995
565.954803
570.874918
577.182915
584.865421
593.906050
604.285486
615.981438
628.968679
643.219088
658.701653
675.382528
693.225109
712.190079
708.375123
689.261816
671.279714
654.468399
638.864735
624.502894
611.414065
599.626658
589.166038
580.054713
572.312138
565.954795
560.996204
557.446859
555.314250
554.602880
555.314250
557.446860
560.996211
565.954804
572.312134
580.054721
589.166053
599.626662
611.414084
624.502892
638.864748
654.468395
671.279724
689.261845
708.375130
705.644391
686.424920
668.342936
651.438242
635.747907
621.306294
608.144762
596.291882
585.773158
576.611224
568.825643
562.432988
557.446855
553.877794
551.733339
551.018019
551.733340
553.877796
557.446861
562.432997
568.825639
576.611232
585.773174
596.291886
608.144781
621.306291
635.747920
651.438238
668.342946
686.424948
705.644399
704.003645
684.720385
666.578387
649.617587
633.875177
619.385632
606.180418
594.288198
583.734564
574.542221
566.730800
560.316928
555.314246
551.733340
549.581768
548.864073
549.581769
551.733341
555.314253
560.316938
566.730796
574.542230
583.734579
594.288203
606.180438
619.385630
633.875191
649.617584
666.578398
684.720413
704.003653
703.456345
684.151807
665.989791
649.010276
633.250495
618.744962
605.525177
593.619835
583.054555
573.852069
566.032029
559.611080
554.602877
551.018020
548.864074
548.145587
548.864074
551.018021
554.602884
559.611089
566.032025
573.852078
583.054571
593.619840
605.525197
618.744961
633.250509
649.010273
665.989802
684.151836
703.456354
704.003645
684.720385
666.578387
649.617587
633.875177
619.385632
606.180418
594.288198
583.734564
574.542221
566.730801
560.316928
555.314246
551.733340
549.581768
548.864073
549.581769
551.733342
555.314253
560.316938
566.730797
574.542231
583.734580
594.288204
606.180438
619.385631
633.875191
649.617585
666.578399
684.720414
704.003654
705.644391
686.424919
668.342935
651.438242
635.747907
621.306293
608.144762
596.291882
585.773159
576.611224
568.825643
562.432988
557.446855
553.877795
551.733340
551.018020
551.733341
553.877797
557.446862
562.432998
568.825640
576.611234
585.773175
596.291888
608.144783
621.306293
635.747922
651.438240
668.342948
686.424950
705.644400
708.375123
689.261816
671.279714
654.468398
638.864734
624.502894
611.414065
599.626658
589.166038
580.054713
572.312139
565.954796
560.996205
557.446860
555.314251
554.602881
555.314252
557.446862
560.996213
565.954806
572.312136
580.054723
589.166055
599.626665
611.414086
624.502895
638.864750
654.468398
671.279727
689.261847
708.375133
712.190071
693.225081
675.382518
658.701656
643.219075
628.968681
615.981420
604.285481
593.906035
584.865413
577.182920
570.874910
565.954797
562.432995
560.316935
559.611086
560.316936
562.432997
565.954805
570.874920
577.182918
584.865424
593.906053
604.285489
615.981442
628.968682
643.219092
658.701656
675.382532
693.225113
712.190082
717.081158
698.306323
680.642661
664.129052
648.801709
634.694199
621.837156
610.258489
599.983114
591.033139
583.427676
577.182914
572.312134
568.825643
566.730800
566.032029
566.730801
568.825646
572.312142
577.182925
583.427674
591.033151
599.983133
610.258498
621.837179
634.694201
648.801727
664.129054
680.642676
698.306357
717.081171
723.037994
704.494748
687.048968
670.739056
655.600777
641.667284
628.968834
617.532991
607.384364
598.544788
591.033139
584.865407
580.054708
576.611224
574.542221
573.852069
574.542222
576.611226
580.054716
584.865418
591.033137
598.544800
607.384383
617.533000
628.968858
641.667288
655.600796
670.739059
687.048985
704.494782
723.038008
730.047910
711.777194
694.587815
678.517611
663.601819
649.873108
637.361288
626.093518
616.094045
607.384385
599.983135
593.906051
589.166055
585.773180
583.734585
583.054576
583.734587
585.773182
589.166064
593.906062
599.983134
607.384397
616.094065
626.093528
637.361312
649.873113
663.601840
678.517616
694.587834
711.777230
730.047926
738.095887
720.138060
703.243051
687.448050
672.787694
659.294088
646.996535
635.921727
626.093497
617.532991
610.258489
604.285475
599.626653
596.291881
594.288198
593.619834
594.288199
596.291884
599.626661
604.285487
610.258489
617.533004
626.093517
635.921738
646.996560
659.294095
672.787716
687.448058
703.243072
720.138098
738.095906
747.164682
729.559430
712.996129
697.511240
683.138718
669.910040
657.853931
646.996561
637.361294
628.968861
621.837183
615.981441
611.414088
608.144790
606.180446
605.525205
606.180447
608.144793
611.414097
615.981453
621.837184
628.968874
637.361315
646.996573
657.853958
669.910048
683.138743
697.511250
712.996153
729.559470
747.164703
757.234697
740.020945
723.825975
708.685435
694.632525
681.698022
669.910014
659.294088
649.873087
641.667283
634.694198
628.968674
624.502889
621.306293
619.385631
618.744961
619.385633
621.306296
624.502898
628.968686
634.694199
641.667297
649.873109
659.294101
669.910042
681.698033
694.632552
708.685447
723.826001
740.020989
757.234722
768.284139
751.499966
735.709150
720.946450
707.244239
694.632525
683.138693
672.787693
663.601800
655.600776
648.801708
643.219068
638.864729
635.747906
633.875176
633.250494
633.875177
635.747909
638.864738
643.219080
648.801710
655.600790
663.601822
672.787708
683.138722
694.632538
707.244268
720.946466
735.709180
751.500013
768.284168
780.288992
763.971541
748.619826
734.267639
720.946450
708.685434
697.511216
687.448050
678.517591
670.739055
664.129051
658.701650
654.468393
651.438240
649.617586
649.010275
649.617588
651.438244
654.468402
658.701662
664.129053
670.739070
678.517614
687.448065
697.511245
708.685449
720.946481
734.267658
748.619861
763.971594
780.289027
793.222963
777.408358
762.529728
748.619825
735.709149
723.825974
712.996105
703.243050
694.587796
687.048966
680.642659
675.382511
671.279708
668.342934
666.578386
665.989790
666.578387
668.342937
671.279717
675.382523
680.642662
687.048981
694.587818
703.243066
712.996135
723.825990
735.709182
748.619849
762.529769
777.408418
793.223007
807.057721
791.780983
777.408390
763.971575
751.500001
740.020982
729.559445
720.138098
711.777216
704.494787
698.306363
693.225116
689.261852
686.424960
684.720425
684.151848
684.720427
686.424963
689.261861
693.225128
698.306365
704.494802
711.777238
720.138114
729.559475
740.020998
751.500035
763.971601
777.408436
791.781054
807.057783
821.762710
807.057681
793.222963
780.288993
768.284141
757.234699
747.164662
738.095889
730.047895
723.037995
717.081159
712.190067
708.375120
705.644392
704.003646
703.456347
704.003648
705.644396
708.375129
712.190079
717.081162
723.038009
730.047916
738.095904
747.164691
757.234715
768.284174
780.289019
793.223010
807.057764
821.762800
