# vtk DataFile Version 2.0
Unstructured Grid Example
ASCII
DATASET UNSTRUCTURED_GRID

POINTS 961 float
0.1 0.005 0
0.0966667 0.005 0
0.0933333 0.005 0
0.09 0.005 0
0.0866667 0.005 0
0.0833333 0.005 0
0.08 0.005 0
0.0766667 0.005 0
0.0733333 0.005 0
0.07 0.005 0
0.0666667 0.005 0
0.0633333 0.005 0
0.06 0.005 0
0.0566667 0.005 0
0.0533333 0.005 0
0.05 0.005 0
0.0466667 0.005 0
0.0433333 0.005 0
0.04 0.005 0
0.0366667 0.005 0
0.0333333 0.005 0
0.03 0.005 0
0.0266667 0.005 0
0.0233333 0.005 0
0.02 0.005 0
0.0166667 0.005 0
0.0133333 0.005 0
0.01 0.005 0
0.00666667 0.005 0
0.00333333 0.005 0
0 0.005 0
0.1 0.00166667 0
0.0966667 0.00166667 0
0.0933333 0.00166667 0
0.09 0.00166667 0
0.0866667 0.00166667 0
0.0833333 0.00166667 0
0.08 0.00166667 0
0.0766667 0.00166667 0
0.0733333 0.00166667 0
0.07 0.00166667 0
0.0666667 0.00166667 0
0.0633333 0.00166667 0
0.06 0.00166667 0
0.0566667 0.00166667 0
0.0533333 0.00166667 0
0.05 0.00166667 0
0.0466667 0.00166667 0
0.0433333 0.00166667 0
0.04 0.00166667 0
0.0366667 0.00166667 0
0.0333333 0.00166667 0
0.03 0.00166667 0
0.0266667 0.00166667 0
0.0233333 0.00166667 0
0.02 0.00166667 0
0.0166667 0.00166667 0
0.0133333 0.00166667 0
0.01 0.00166667 0
0.00666667 0.00166667 0
0.00333333 0.00166667 0
0 0.00166667 0
0.1 -0.00166667 0
0.0966667 -0.00166667 0
0.0933333 -0.00166667 0
0.09 -0.00166667 0
0.0866667 -0.00166667 0
0.0833333 -0.00166667 0
0.08 -0.00166667 0
0.0766667 -0.00166667 0
0.0733333 -0.00166667 0
0.07 -0.00166667 0
0.0666667 -0.00166667 0
0.0633333 -0.00166667 0
0.06 -0.00166667 0
0.0566667 -0.00166667 0
0.0533333 -0.00166667 0
0.05 -0.00166667 0
0.0466667 -0.00166667 0
0.0433333 -0.00166667 0
0.04 -0.00166667 0
0.0366667 -0.00166667 0
0.0333333 -0.00166667 0
0.03 -0.00166667 0
0.0266667 -0.00166667 0
0.0233333 -0.00166667 0
0.02 -0.00166667 0
0.0166667 -0.00166667 0
0.0133333 -0.00166667 0
0.01 -0.00166667 0
0.00666667 -0.00166667 0
0.00333333 -0.00166667 0
0 -0.00166667 0
0.1 -0.005 0
0.0966667 -0.005 0
0.0933333 -0.005 0
0.09 -0.005 0
0.0866667 -0.005 0
0.0833333 -0.005 0
0.08 -0.005 0
0.0766667 -0.005 0
0.0733333 -0.005 0
0.07 -0.005 0
0.0666667 -0.005 0
0.0633333 -0.005 0
0.06 -0.005 0
0.0566667 -0.005 0
0.0533333 -0.005 0
0.05 -0.005 0
0.0466667 -0.005 0
0.0433333 -0.005 0
0.04 -0.005 0
0.0366667 -0.005 0
0.0333333 -0.005 0
0.03 -0.005 0
0.0266667 -0.005 0
0.0233333 -0.005 0
0.02 -0.005 0
0.0166667 -0.005 0
0.0133333 -0.005 0
0.01 -0.005 0
0.00666667 -0.005 0
0.00333333 -0.005 0
0 -0.005 0
0.1 -0.00833333 0
0.0966667 -0.00833333 0
0.0933333 -0.00833333 0
0.09 -0.00833333 0
0.0866667 -0.00833333 0
0.0833333 -0.00833333 0
0.08 -0.00833333 0
0.0766667 -0.00833333 0
0.0733333 -0.00833333 0
0.07 -0.00833333 0
0.0666667 -0.00833333 0
0.0633333 -0.00833333 0
0.06 -0.00833333 0
0.0566667 -0.00833333 0
0.0533333 -0.00833333 0
0.05 -0.00833333 0
0.0466667 -0.00833333 0
0.0433333 -0.00833333 0
0.04 -0.00833333 0
0.0366667 -0.00833333 0
0.0333333 -0.00833333 0
0.03 -0.00833333 0
0.0266667 -0.00833333 0
0.0233333 -0.00833333 0
0.02 -0.00833333 0
0.0166667 -0.00833333 0
0.0133333 -0.00833333 0
0.01 -0.00833333 0
0.00666667 -0.00833333 0
0.00333333 -0.00833333 0
0 -0.00833333 0
0.1 -0.0116667 0
0.0966667 -0.0116667 0
0.0933333 -0.0116667 0
0.09 -0.0116667 0
0.0866667 -0.0116667 0
0.0833333 -0.0116667 0
0.08 -0.0116667 0
0.0766667 -0.0116667 0
0.0733333 -0.0116667 0
0.07 -0.0116667 0
0.0666667 -0.0116667 0
0.0633333 -0.0116667 0
0.06 -0.0116667 0
0.0566667 -0.0116667 0
0.0533333 -0.0116667 0
0.05 -0.0116667 0
0.0466667 -0.0116667 0
0.0433333 -0.0116667 0
0.04 -0.0116667 0
0.0366667 -0.0116667 0
0.0333333 -0.0116667 0
0.03 -0.0116667 0
0.0266667 -0.0116667 0
0.0233333 -0.0116667 0
0.02 -0.0116667 0
0.0166667 -0.0116667 0
0.0133333 -0.0116667 0
0.01 -0.0116667 0
0.00666667 -0.0116667 0
0.00333333 -0.0116667 0
0 -0.0116667 0
0.1 -0.015 0
0.0966667 -0.015 0
0.0933333 -0.015 0
0.09 -0.015 0
0.0866667 -0.015 0
0.0833333 -0.015 0
0.08 -0.015 0
0.0766667 -0.015 0
0.0733333 -0.015 0
0.07 -0.015 0
0.0666667 -0.015 0
0.0633333 -0.015 0
0.06 -0.015 0
0.0566667 -0.015 0
0.0533333 -0.015 0
0.05 -0.015 0
0.0466667 -0.015 0
0.0433333 -0.015 0
0.04 -0.015 0
0.0366667 -0.015 0
0.0333333 -0.015 0
0.03 -0.015 0
0.0266667 -0.015 0
0.0233333 -0.015 0
0.02 -0.015 0
0.0166667 -0.015 0
0.0133333 -0.015 0
0.01 -0.015 0
0.00666667 -0.015 0
0.00333333 -0.015 0
0 -0.015 0
0.1 -0.0183333 0
0.0966667 -0.0183333 0
0.0933333 -0.0183333 0
0.09 -0.0183333 0
0.0866667 -0.0183333 0
0.0833333 -0.0183333 0
0.08 -0.0183333 0
0.0766667 -0.0183333 0
0.0733333 -0.0183333 0
0.07 -0.0183333 0
0.0666667 -0.0183333 0
0.0633333 -0.0183333 0
0.06 -0.0183333 0
0.0566667 -0.0183333 0
0.0533333 -0.0183333 0
0.05 -0.0183333 0
0.0466667 -0.0183333 0
0.0433333 -0.0183333 0
0.04 -0.0183333 0
0.0366667 -0.0183333 0
0.0333333 -0.0183333 0
0.03 -0.0183333 0
0.0266667 -0.0183333 0
0.0233333 -0.0183333 0
0.02 -0.0183333 0
0.0166667 -0.0183333 0
0.0133333 -0.0183333 0
0.01 -0.0183333 0
0.00666667 -0.0183333 0
0.00333333 -0.0183333 0
0 -0.0183333 0
0.1 -0.0216667 0
0.0966667 -0.0216667 0
0.0933333 -0.0216667 0
0.09 -0.0216667 0
0.0866667 -0.0216667 0
0.0833333 -0.0216667 0
0.08 -0.0216667 0
0.0766667 -0.0216667 0
0.0733333 -0.0216667 0
0.07 -0.0216667 0
0.0666667 -0.0216667 0
0.0633333 -0.0216667 0
0.06 -0.0216667 0
0.0566667 -0.0216667 0
0.0533333 -0.0216667 0
0.05 -0.0216667 0
0.0466667 -0.0216667 0
0.0433333 -0.0216667 0
0.04 -0.0216667 0
0.0366667 -0.0216667 0
0.0333333 -0.0216667 0
0.03 -0.0216667 0
0.0266667 -0.0216667 0
0.0233333 -0.0216667 0
0.02 -0.0216667 0
0.0166667 -0.0216667 0
0.0133333 -0.0216667 0
0.01 -0.0216667 0
0.00666667 -0.0216667 0
0.00333333 -0.0216667 0
0 -0.0216667 0
0.1 -0.025 0
0.0966667 -0.025 0
0.0933333 -0.025 0
0.09 -0.025 0
0.0866667 -0.025 0
0.0833333 -0.025 0
0.08 -0.025 0
0.0766667 -0.025 0
0.0733333 -0.025 0
0.07 -0.025 0
0.0666667 -0.025 0
0.0633333 -0.025 0
0.06 -0.025 0
0.0566667 -0.025 0
0.0533333 -0.025 0
0.05 -0.025 0
0.0466667 -0.025 0
0.0433333 -0.025 0
0.04 -0.025 0
0.0366667 -0.025 0
0.0333333 -0.025 0
0.03 -0.025 0
0.0266667 -0.025 0
0.0233333 -0.025 0
0.02 -0.025 0
0.0166667 -0.025 0
0.0133333 -0.025 0
0.01 -0.025 0
0.00666667 -0.025 0
0.00333333 -0.025 0
0 -0.025 0
0.1 -0.0283333 0
0.0966667 -0.0283333 0
0.0933333 -0.0283333 0
0.09 -0.0283333 0
0.0866667 -0.0283333 0
0.0833333 -0.0283333 0
0.08 -0.0283333 0
0.0766667 -0.0283333 0
0.0733333 -0.0283333 0
0.07 -0.0283333 0
0.0666667 -0.0283333 0
0.0633333 -0.0283333 0
0.06 -0.0283333 0
0.0566667 -0.0283333 0
0.0533333 -0.0283333 0
0.05 -0.0283333 0
0.0466667 -0.0283333 0
0.0433333 -0.0283333 0
0.04 -0.0283333 0
0.0366667 -0.0283333 0
0.0333333 -0.0283333 0
0.03 -0.0283333 0
0.0266667 -0.0283333 0
0.0233333 -0.0283333 0
0.02 -0.0283333 0
0.0166667 -0.0283333 0
0.0133333 -0.0283333 0
0.01 -0.0283333 0
0.00666667 -0.0283333 0
0.00333333 -0.0283333 0
0 -0.0283333 0
0.1 -0.0316667 0
0.0966667 -0.0316667 0
0.0933333 -0.0316667 0
0.09 -0.0316667 0
0.0866667 -0.0316667 0
0.0833333 -0.0316667 0
0.08 -0.0316667 0
0.0766667 -0.0316667 0
0.0733333 -0.0316667 0
0.07 -0.0316667 0
0.0666667 -0.0316667 0
0.0633333 -0.0316667 0
0.06 -0.0316667 0
0.0566667 -0.0316667 0
0.0533333 -0.0316667 0
0.05 -0.0316667 0
0.0466667 -0.0316667 0
0.0433333 -0.0316667 0
0.04 -0.0316667 0
0.0366667 -0.0316667 0
0.0333333 -0.0316667 0
0.03 -0.0316667 0
0.0266667 -0.0316667 0
0.0233333 -0.0316667 0
0.02 -0.0316667 0
0.0166667 -0.0316667 0
0.0133333 -0.0316667 0
0.01 -0.0316667 0
0.00666667 -0.0316667 0
0.00333333 -0.0316667 0
0 -0.0316667 0
0.1 -0.035 0
0.0966667 -0.035 0
0.0933333 -0.035 0
0.09 -0.035 0
0.0866667 -0.035 0
0.0833333 -0.035 0
0.08 -0.035 0
0.0766667 -0.035 0
0.0733333 -0.035 0
0.07 -0.035 0
0.0666667 -0.035 0
0.0633333 -0.035 0
0.06 -0.035 0
0.0566667 -0.035 0
0.0533333 -0.035 0
0.05 -0.035 0
0.0466667 -0.035 0
0.0433333 -0.035 0
0.04 -0.035 0
0.0366667 -0.035 0
0.0333333 -0.035 0
0.03 -0.035 0
0.0266667 -0.035 0
0.0233333 -0.035 0
0.02 -0.035 0
0.0166667 -0.035 0
0.0133333 -0.035 0
0.01 -0.035 0
0.00666667 -0.035 0
0.00333333 -0.035 0
0 -0.035 0
0.1 -0.0383333 0
0.0966667 -0.0383333 0
0.0933333 -0.0383333 0
0.09 -0.0383333 0
0.0866667 -0.0383333 0
0.0833333 -0.0383333 0
0.08 -0.0383333 0
0.0766667 -0.0383333 0
0.0733333 -0.0383333 0
0.07 -0.0383333 0
0.0666667 -0.0383333 0
0.0633333 -0.0383333 0
0.06 -0.0383333 0
0.0566667 -0.0383333 0
0.0533333 -0.0383333 0
0.05 -0.0383333 0
0.0466667 -0.0383333 0
0.0433333 -0.0383333 0
0.04 -0.0383333 0
0.0366667 -0.0383333 0
0.0333333 -0.0383333 0
0.03 -0.0383333 0
0.0266667 -0.0383333 0
0.0233333 -0.0383333 0
0.02 -0.0383333 0
0.0166667 -0.0383333 0
0.0133333 -0.0383333 0
0.01 -0.0383333 0
0.00666667 -0.0383333 0
0.00333333 -0.0383333 0
0 -0.0383333 0
0.1 -0.0416667 0
0.0966667 -0.0416667 0
0.0933333 -0.0416667 0
0.09 -0.0416667 0
0.0866667 -0.0416667 0
0.0833333 -0.0416667 0
0.08 -0.0416667 0
0.0766667 -0.0416667 0
0.0733333 -0.0416667 0
0.07 -0.0416667 0
0.0666667 -0.0416667 0
0.0633333 -0.0416667 0
0.06 -0.0416667 0
0.0566667 -0.0416667 0
0.0533333 -0.0416667 0
0.05 -0.0416667 0
0.0466667 -0.0416667 0
0.0433333 -0.0416667 0
0.04 -0.0416667 0
0.0366667 -0.0416667 0
0.0333333 -0.0416667 0
0.03 -0.0416667 0
0.0266667 -0.0416667 0
0.0233333 -0.0416667 0
0.02 -0.0416667 0
0.0166667 -0.0416667 0
0.0133333 -0.0416667 0
0.01 -0.0416667 0
0.00666667 -0.0416667 0
0.00333333 -0.0416667 0
0 -0.0416667 0
0.1 -0.045 0
0.0966667 -0.045 0
0.0933333 -0.045 0
0.09 -0.045 0
0.0866667 -0.045 0
0.0833333 -0.045 0
0.08 -0.045 0
0.0766667 -0.045 0
0.0733333 -0.045 0
0.07 -0.045 0
0.0666667 -0.045 0
0.0633333 -0.045 0
0.06 -0.045 0
0.0566667 -0.045 0
0.0533333 -0.045 0
0.05 -0.045 0
0.0466667 -0.045 0
0.0433333 -0.045 0
0.04 -0.045 0
0.0366667 -0.045 0
0.0333333 -0.045 0
0.03 -0.045 0
0.0266667 -0.045 0
0.0233333 -0.045 0
0.02 -0.045 0
0.0166667 -0.045 0
0.0133333 -0.045 0
0.01 -0.045 0
0.00666667 -0.045 0
0.00333333 -0.045 0
0 -0.045 0
0.1 -0.0483333 0
0.0966667 -0.0483333 0
0.0933333 -0.0483333 0
0.09 -0.0483333 0
0.0866667 -0.0483333 0
[...]
POINT_DATA 961
SCALARS Temp float 1
LOOKUP_TABLE default
872.894044
860.176131
848.209371
837.020148
826.633124
817.071234
808.355487
800.505088
793.537247
787.467290
782.308508
778.072196
774.767643
772.402075
770.980661
770.506511
770.980662
772.402076
774.767647
778.072202
782.308506
787.467297
793.537259
800.505093
808.355502
817.071237
826.633138
837.020153
848.209388
860.176169
872.894074
860.176151
846.963759
834.531724
822.907463
812.116590
802.182934
793.128317
784.972694
777.733943
771.427985
766.068630
761.667609
758.234575
755.777034
754.300355
753.807770
754.300356
755.777035
758.234580
761.667616
766.068627
771.427992
777.733955
784.972699
793.128333
802.182936
812.116604
822.907467
834.531741
846.963791
860.176170
848.209374
834.531712
821.661885
809.628278
798.457408
788.173941
778.800469
770.357648
762.863987
756.335967
750.787884
746.231882
742.677955
740.133872
738.605193
738.095262
738.605193
740.133874
742.677960
746.231890
750.787881
756.335974
762.864000
770.357653
778.800485
788.173943
798.457422
809.628281
821.661900
834.531741
848.209389
837.020141
822.907439
809.628267
797.211912
785.685734
775.075186
765.403576
756.692218
748.960210
742.224556
736.500008
731.799096
728.132130
725.507129
723.929828
723.403678
723.929828
725.507130
728.132135
731.799103
736.500005
742.224564
748.960223
756.692224
765.403593
775.075187
785.685748
797.211914
809.628281
822.907466
837.020153
826.633128
812.116578
798.457409
785.685748
773.829738
762.915558
752.967186
744.006544
736.053277
729.124876
723.236513
718.401081
714.629181
711.929063
710.306626
709.765419
710.306626
711.929064
714.629186
718.401088
723.236510
729.124883
736.053289
744.006549
752.967202
762.915559
773.829751
785.685749
798.457422
812.116604
826.633138
817.071231
802.182913
788.173934
775.075191
762.915549
751.721857
741.518708
732.328584
724.171634
717.065797
711.026635
706.067367
702.198869
699.429601
697.765613
697.210547
697.765614
699.429602
702.198874
706.067374
711.026632
717.065805
724.171647
732.328589
741.518724
751.721857
762.915562
775.075191
788.173945
802.182938
817.071240
808.355495
793.128308
778.800475
765.403594
752.967190
741.518722
731.083341
721.684043
713.341436
706.073864
699.897246
694.825101
690.868554
688.036255
686.334394
685.766693
686.334395
688.036257
690.868559
694.825109
699.897243
706.073872
713.341448
721.684048
731.083357
741.518721
752.967202
765.403593
778.800485
793.128333
808.355503
800.505088
784.972677
770.357646
756.692229
744.006540
732.328590
721.684035
712.096331
703.586497
696.173250
689.872822
684.699008
680.663153
677.774082
676.038107
675.459027
676.038107
677.774083
680.663158
684.699016
689.872819
696.173257
703.586510
712.096335
721.684051
732.328589
744.006552
756.692227
770.357656
784.972701
800.505096
793.537255
777.733933
762.863993
748.960228
736.053281
724.171648
713.341435
703.586506
694.928248
687.385701
680.975384
675.711330
671.605083
668.665622
666.899368
666.310188
666.899369
668.665623
671.605088
675.711338
680.975380
687.385708
694.928261
703.586510
713.341451
724.171647
736.053293
748.960226
762.864002
777.733958
793.537263
787.467290
771.427967
756.335964
742.224567
729.124871
717.065803
706.073855
696.173249
687.385692
679.730507
673.224461
667.881795
663.714227
660.730869
658.938239
658.340260
658.938240
660.730870
663.714232
667.881803
673.224457
679.730515
687.385705
696.173254
706.073871
717.065802
729.124883
742.224564
756.335974
771.427992
787.467297
782.308503
766.068606
750.787875
736.500012
723.236502
711.026634
699.897230
689.872815
680.975368
673.224454
666.637048
661.227572
657.007887
653.987222
652.172175
651.566719
652.172176
653.987223
657.007893
661.227580
666.637045
673.224461
680.975381
689.872820
699.897246
711.026632
723.236514
736.500009
750.787884
766.068630
782.308510
778.072198
761.667593
746.231882
731.799108
718.401078
706.067374
694.825094
684.699010
675.711322
667.881798
661.227581
655.763241
651.500759
648.449458
646.616003
646.004405
646.616003
648.449459
651.500765
655.763249
661.227577
667.881805
675.711336
684.699014
694.825110
706.067373
718.401090
731.799105
746.231891
761.667617
778.072205
774.767644
758.234557
742.677953
728.132142
714.629177
702.198876
690.868545
680.663153
671.605074
663.714228
657.007896
651.500758
647.204893
644.129694
642.281878
641.665491
642.281879
644.129695
647.204899
651.500766
657.007892
663.714236
671.605088
680.663158
690.868562
702.198874
714.629189
728.132139
742.677962
758.234582
774.767651
772.402073
755.777013
740.133867
725.507138
711.929056
699.429605
688.036243
677.774079
668.665610
660.730867
653.987227
648.449453
644.129690
641.037383
639.179289
638.559473
639.179289
641.037384
644.129696
648.449461
653.987223
660.730874
668.665623
677.774083
688.036260
699.429603
711.929068
725.507135
740.133877
755.777038
772.402080
770.980660
754.300334
738.605188
723.929836
710.306619
697.765617
686.334382
676.038104
666.899357
658.938237
652.172180
646.615998
642.281875
639.179289
637.315018
636.693142
637.315019
639.179291
642.281881
646.616007
652.172177
658.938245
666.899371
676.038109
686.334399
697.765616
710.306632
723.929834
738.605198
754.300360
770.980667
770.506510
753.807750
738.095257
723.403686
709.765413
697.210550
685.766682
675.459025
666.310177
658.340259
651.566724
646.004402
641.665488
638.559473
636.693142
636.070578
636.693143
638.559475
641.665495
646.004410
651.566721
658.340267
666.310191
675.459030
685.766699
697.210550
709.765426
723.403684
738.095267
753.807776
770.506518
770.980660
754.300334
738.605188
723.929836
710.306619
697.765617
686.334382
676.038104
666.899357
658.938237
652.172181
646.615999
642.281875
639.179289
637.315018
636.693142
637.315019
639.179291
642.281882
646.616007
652.172177
658.938246
666.899371
676.038110
686.334400
697.765617
710.306632
723.929835
738.605199
754.300361
770.980668
772.402073
755.777013
740.133867
725.507137
711.929056
699.429604
688.036243
677.774079
668.665610
660.730867
653.987227
648.449454
644.129690
641.037384
639.179289
638.559473
639.179290
641.037385
644.129697
648.449463
653.987224
660.730876
668.665624
677.774085
688.036262
699.429605
711.929070
725.507136
740.133878
755.777040
772.402082
774.767643
758.234557
742.677953
728.132141
714.629177
702.198875
690.868545
680.663153
671.605074
663.714228
657.007896
651.500759
647.204894
644.129694
642.281879
641.665492
642.281880
644.129696
647.204900
651.500768
657.007894
663.714238
671.605090
680.663160
690.868564
702.198876
714.629192
728.132141
742.677965
758.234584
774.767653
778.072197
761.667592
746.231881
731.799108
718.401077
706.067374
694.825094
684.699010
675.711323
667.881798
661.227582
655.763242
651.500760
648.449459
646.616004
646.004407
646.616005
648.449461
651.500767
655.763251
661.227580
667.881808
675.711339
684.699017
694.825113
706.067376
718.401093
731.799109
746.231894
761.667620
778.072208
782.308505
766.068608
750.787877
736.500014
723.236505
711.026636
699.897233
689.872819
680.975371
673.224458
666.637053
661.227576
657.007892
653.987227
652.172180
651.566724
652.172181
653.987229
657.007899
661.227586
666.637051
673.224468
680.975388
689.872826
699.897253
711.026639
723.236521
736.500016
750.787891
766.068637
782.308517
787.467286
771.427963
756.335960
742.224562
729.124867
717.065799
706.073851
696.173246
687.385688
679.730504
673.224458
667.881792
663.714224
660.730866
658.938237
658.340259
658.938238
660.730869
663.714231
667.881802
673.224457
679.730515
687.385705
696.173254
706.073872
717.065803
729.124884
742.224566
756.335975
771.427994
787.467299
793.537257
777.733936
762.863995
748.960231
736.053284
724.171652
713.341439
703.586510
694.928252
687.385706
680.975389
675.711336
671.605089
668.665628
666.899375
666.310196
666.899377
668.665631
671.605096
675.711346
680.975389
687.385717
694.928270
703.586520
713.341461
724.171657
736.053303
748.960236
762.864012
777.733967
793.537272
800.505083
784.972671
770.357640
756.692222
744.006534
732.328584
721.684029
712.096326
703.586493
696.173245
689.872818
684.699004
680.663149
677.774078
676.038104
675.459024
676.038105
677.774081
680.663157
684.699015
689.872818
696.173257
703.586511
712.096336
721.684052
732.328591
744.006554
756.692229
770.357658
784.972704
800.505099
808.355500
793.128313
778.800480
765.403600
752.967196
741.518729
731.083349
721.684052
713.341445
706.073874
699.897256
694.825112
690.868565
688.036267
686.334406
685.766706
686.334408
688.036270
690.868573
694.825123
699.897257
706.073886
713.341463
721.684063
731.083373
741.518737
752.967218
765.403609
778.800501
793.128349
808.355518
817.071227
802.182909
788.173931
775.075188
762.915546
751.721855
741.518707
732.328584
724.171635
717.065798
711.026636
706.067368
702.198871
699.429604
697.765616
697.210550
697.765618
699.429607
702.198879
706.067379
711.026637
717.065811
724.171654
732.328596
741.518731
751.721865
762.915570
775.075200
788.173954
802.182948
817.071249
826.633116
812.116565
798.457397
785.685736
773.829726
762.915546
752.967175
744.006533
736.053267
729.124866
723.236504
718.401072
714.629173
711.929055
710.306618
709.765412
710.306620
711.929058
714.629181
718.401083
723.236506
729.124879
736.053286
744.006546
752.967200
762.915558
773.829751
785.685750
798.457424
812.116607
826.633141
837.020138
822.907437
809.628266
797.211911
785.685735
775.075188
765.403579
756.692222
748.960215
742.224561
736.500013
731.799102
728.132137
725.507136
723.929836
723.403686
723.929837
725.507140
728.132145
731.799113
736.500015
742.224575
748.960234
756.692236
765.403605
775.075201
785.685763
797.211929
809.628297
822.907483
837.020169
848.209360
834.531697
821.661871
809.628265
798.457396
788.173930
778.800459
770.357639
762.863979
756.335959
750.787876
746.231875
742.677948
740.133866
738.605187
738.095257
738.605189
740.133869
742.677956
746.231886
750.787878
756.335972
762.863998
770.357653
778.800486
788.173944
798.457425
809.628286
821.661907
834.531750
848.209398
860.176148
846.963757
834.531725
822.907467
812.116596
802.182941
793.128326
784.972704
777.733954
771.427997
766.068642
761.667622
758.234588
755.777048
754.300370
753.807785
754.300371
755.777051
758.234596
761.667633
766.068645
771.428010
777.733973
784.972718
793.128352
802.182956
812.116626
822.907490
834.531766
846.963819
860.176202
872.894022
860.176113
848.209360
837.020139
826.633117
817.071229
808.355482
800.505084
793.537244
787.467287
782.308506
778.072194
774.767642
772.402074
770.980661
770.506511
770.980662
772.402077
774.767649
778.072205
782.308509
787.467300
793.537263
800.505098
808.355508
817.071243
826.633146
837.020162
848.209401
860.176186
872.894100
