# vtk DataFile Version 2.0
Unstructured Grid Example
ASCII
DATASET UNSTRUCTURED_GRID

POINTS 961 float
0.1 0.005 0
0.0966667 0.005 0
0.0933333 0.005 0
0.09 0.005 0
0.0866667 0.005 0
0.0833333 0.005 0
0.08 0.005 0
0.0766667 0.005 0
0.0733333 0.005 0
0.07 0.005 0
0.0666667 0.005 0
0.0633333 0.005 0
0.06 0.005 0
0.0566667 0.005 0
0.0533333 0.005 0
0.05 0.005 0
0.0466667 0.005 0
0.0433333 0.005 0
0.04 0.005 0
0.0366667 0.005 0
0.0333333 0.005 0
0.03 0.005 0
0.0266667 0.005 0
0.0233333 0.005 0
0.02 0.005 0
0.0166667 0.005 0
0.0133333 0.005 0
0.01 0.005 0
0.00666667 0.005 0
0.00333333 0.005 0
0 0.005 0
0.1 0.00166667 0
0.0966667 0.00166667 0
0.0933333 0.00166667 0
0.09 0.00166667 0
0.0866667 0.00166667 0
0.0833333 0.00166667 0
0.08 0.00166667 0
0.0766667 0.00166667 0
0.0733333 0.00166667 0
0.07 0.00166667 0
0.0666667 0.00166667 0
0.0633333 0.00166667 0
0.06 0.00166667 0
0.0566667 0.00166667 0
0.0533333 0.00166667 0
0.05 0.00166667 0
0.0466667 0.00166667 0
0.0433333 0.00166667 0
0.04 0.00166667 0
0.0366667 0.00166667 0
0.0333333 0.00166667 0
0.03 0.00166667 0
0.0266667 0.00166667 0
0.0233333 0.00166667 0
0.02 0.00166667 0
0.0166667 0.00166667 0
0.0133333 0.00166667 0
0.01 0.00166667 0
0.00666667 0.00166667 0
0.00333333 0.00166667 0
0 0.00166667 0
0.1 -0.00166667 0
0.0966667 -0.00166667 0
0.0933333 -0.00166667 0
0.09 -0.00166667 0
0.0866667 -0.00166667 0
0.0833333 -0.00166667 0
0.08 -0.00166667 0
0.0766667 -0.00166667 0
0.0733333 -0.00166667 0
0.07 -0.00166667 0
0.0666667 -0.00166667 0
0.0633333 -0.00166667 0
0.06 -0.00166667 0
0.0566667 -0.00166667 0
0.0533333 -0.00166667 0
0.05 -0.00166667 0
0.0466667 -0.00166667 0
0.0433333 -0.00166667 0
0.04 -0.00166667 0
0.0366667 -0.00166667 0
0.0333333 -0.00166667 0
0.03 -0.00166667 0
0.0266667 -0.00166667 0
0.0233333 -0.00166667 0
0.02 -0.00166667 0
0.0166667 -0.00166667 0
0.0133333 -0.00166667 0
0.01 -0.00166667 0
0.00666667 -0.00166667 0
0.00333333 -0.00166667 0
0 -0.00166667 0
0.1 -0.005 0
0.0966667 -0.005 0
0.0933333 -0.005 0
0.09 -0.005 0
0.0866667 -0.005 0
0.0833333 -0.005 0
0.08 -0.005 0
0.0766667 -0.005 0
0.0733333 -0.005 0
0.07 -0.005 0
0.0666667 -0.005 0
0.0633333 -0.005 0
0.06 -0.005 0
0.0566667 -0.005 0
0.0533333 -0.005 0
0.05 -0.005 0
0.0466667 -0.005 0
0.0433333 -0.005 0
0.04 -0.005 0
0.0366667 -0.005 0
0.0333333 -0.005 0
0.03 -0.005 0
0.0266667 -0.005 0
0.0233333 -0.005 0
0.02 -0.005 0
0.0166667 -0.005 0
0.0133333 -0.005 0
0.01 -0.005 0
0.00666667 -0.005 0
0.00333333 -0.005 0
0 -0.005 0
0.1 -0.00833333 0
0.0966667 -0.00833333 0
0.0933333 -0.00833333 0
0.09 -0.00833333 0
0.0866667 -0.00833333 0
0.0833333 -0.00833333 0
0.08 -0.00833333 0
0.0766667 -0.00833333 0
0.0733333 -0.00833333 0
0.07 -0.00833333 0
0.0666667 -0.00833333 0
0.0633333 -0.00833333 0
0.06 -0.00833333 0
0.0566667 -0.00833333 0
0.0533333 -0.00833333 0
0.05 -0.00833333 0
0.0466667 -0.00833333 0
0.0433333 -0.00833333 0
0.04 -0.00833333 0
0.0366667 -0.00833333 0
0.0333333 -0.00833333 0
0.03 -0.00833333 0
0.0266667 -0.00833333 0
0.0233333 -0.00833333 0
0.02 -0.00833333 0
0.0166667 -0.00833333 0
0.0133333 -0.00833333 0
0.01 -0.00833333 0
0.00666667 -0.00833333 0
0.00333333 -0.00833333 0
0 -0.00833333 0
0.1 -0.0116667 0
0.0966667 -0.0116667 0
0.0933333 -0.0116667 0
0.09 -0.0116667 0
0.0866667 -0.0116667 0
0.0833333 -0.0116667 0
0.08 -0.0116667 0
0.0766667 -0.0116667 0
0.0733333 -0.0116667 0
0.07 -0.0116667 0
0.0666667 -0.0116667 0
0.0633333 -0.0116667 0
0.06 -0.0116667 0
0.0566667 -0.0116667 0
0.0533333 -0.0116667 0
0.05 -0.0116667 0
0.0466667 -0.0116667 0
0.0433333 -0.0116667 0
0.04 -0.0116667 0
0.0366667 -0.0116667 0
0.0333333 -0.0116667 0
0.03 -0.0116667 0
0.0266667 -0.0116667 0
0.0233333 -0.0116667 0
0.02 -0.0116667 0
0.0166667 -0.0116667 0
0.0133333 -0.0116667 0
0.01 -0.0116667 0
0.00666667 -0.0116667 0
0.00333333 -0.0116667 0
0 -0.0116667 0
0.1 -0.015 0
0.0966667 -0.015 0
0.0933333 -0.015 0
0.09 -0.015 0
0.0866667 -0.015 0
0.0833333 -0.015 0
0.08 -0.015 0
0.0766667 -0.015 0
0.0733333 -0.015 0
0.07 -0.015 0
0.0666667 -0.015 0
0.0633333 -0.015 0
0.06 -0.015 0
0.0566667 -0.015 0
0.0533333 -0.015 0
0.05 -0.015 0
0.0466667 -0.015 0
0.0433333 -0.015 0
0.04 -0.015 0
0.0366667 -0.015 0
0.0333333 -0.015 0
0.03 -0.015 0
0.0266667 -0.015 0
0.0233333 -0.015 0
0.02 -0.015 0
0.0166667 -0.015 0
0.0133333 -0.015 0
0.01 -0.015 0
0.00666667 -0.015 0
0.00333333 -0.015 0
0 -0.015 0
0.1 -0.0183333 0
0.0966667 -0.0183333 0
0.0933333 -0.0183333 0
0.09 -0.0183333 0
0.0866667 -0.0183333 0
0.0833333 -0.0183333 0
0.08 -0.0183333 0
0.0766667 -0.0183333 0
0.0733333 -0.0183333 0
0.07 -0.0183333 0
0.0666667 -0.0183333 0
0.0633333 -0.0183333 0
0.06 -0.0183333 0
0.0566667 -0.0183333 0
0.0533333 -0.0183333 0
0.05 -0.0183333 0
0.0466667 -0.0183333 0
0.0433333 -0.0183333 0
0.04 -0.0183333 0
0.0366667 -0.0183333 0
0.0333333 -0.0183333 0
0.03 -0.0183333 0
0.0266667 -0.0183333 0
0.0233333 -0.0183333 0
0.02 -0.0183333 0
0.0166667 -0.0183333 0
0.0133333 -0.0183333 0
0.01 -0.0183333 0
0.00666667 -0.0183333 0
0.00333333 -0.0183333 0
0 -0.0183333 0
0.1 -0.0216667 0
0.0966667 -0.0216667 0
0.0933333 -0.0216667 0
0.09 -0.0216667 0
0.0866667 -0.0216667 0
0.0833333 -0.0216667 0
0.08 -0.0216667 0
0.0766667 -0.0216667 0
0.0733333 -0.0216667 0
0.07 -0.0216667 0
0.0666667 -0.0216667 0
0.0633333 -0.0216667 0
0.06 -0.0216667 0
0.0566667 -0.0216667 0
0.0533333 -0.0216667 0
0.05 -0.0216667 0
0.0466667 -0.0216667 0
0.0433333 -0.0216667 0
0.04 -0.0216667 0
0.0366667 -0.0216667 0
0.0333333 -0.0216667 0
0.03 -0.0216667 0
0.0266667 -0.0216667 0
0.0233333 -0.0216667 0
0.02 -0.0216667 0
0.0166667 -0.0216667 0
0.0133333 -0.0216667 0
0.01 -0.0216667 0
0.00666667 -0.0216667 0
0.00333333 -0.0216667 0
0 -0.0216667 0
0.1 -0.025 0
0.0966667 -0.025 0
0.0933333 -0.025 0
0.09 -0.025 0
0.0866667 -0.025 0
0.0833333 -0.025 0
0.08 -0.025 0
0.0766667 -0.025 0
0.0733333 -0.025 0
0.07 -0.025 0
0.0666667 -0.025 0
0.0633333 -0.025 0
0.06 -0.025 0
0.0566667 -0.025 0
0.0533333 -0.025 0
0.05 -0.025 0
0.0466667 -0.025 0
0.0433333 -0.025 0
0.04 -0.025 0
0.0366667 -0.025 0
0.0333333 -0.025 0
0.03 -0.025 0
0.0266667 -0.025 0
0.0233333 -0.025 0
0.02 -0.025 0
0.0166667 -0.025 0
0.0133333 -0.025 0
0.01 -0.025 0
0.00666667 -0.025 0
0.00333333 -0.025 0
0 -0.025 0
0.1 -0.0283333 0
0.0966667 -0.0283333 0
0.0933333 -0.0283333 0
0.09 -0.0283333 0
0.0866667 -0.0283333 0
0.0833333 -0.0283333 0
0.08 -0.0283333 0
0.0766667 -0.0283333 0
0.0733333 -0.0283333 0
0.07 -0.0283333 0
0.0666667 -0.0283333 0
0.0633333 -0.0283333 0
0.06 -0.0283333 0
0.0566667 -0.0283333 0
0.0533333 -0.0283333 0
0.05 -0.0283333 0
0.0466667 -0.0283333 0
0.0433333 -0.0283333 0
0.04 -0.0283333 0
0.0366667 -0.0283333 0
0.0333333 -0.0283333 0
0.03 -0.0283333 0
0.0266667 -0.0283333 0
0.0233333 -0.0283333 0
0.02 -0.0283333 0
0.0166667 -0.0283333 0
0.0133333 -0.0283333 0
0.01 -0.0283333 0
0.00666667 -0.0283333 0
0.00333333 -0.0283333 0
0 -0.0283333 0
0.1 -0.0316667 0
0.0966667 -0.0316667 0
0.0933333 -0.0316667 0
0.09 -0.0316667 0
0.0866667 -0.0316667 0
0.0833333 -0.0316667 0
0.08 -0.0316667 0
0.0766667 -0.0316667 0
0.0733333 -0.0316667 0
0.07 -0.0316667 0
0.0666667 -0.0316667 0
0.0633333 -0.0316667 0
0.06 -0.0316667 0
0.0566667 -0.0316667 0
0.0533333 -0.0316667 0
0.05 -0.0316667 0
0.0466667 -0.0316667 0
0.0433333 -0.0316667 0
0.04 -0.0316667 0
0.0366667 -0.0316667 0
0.0333333 -0.0316667 0
0.03 -0.0316667 0
0.0266667 -0.0316667 0
0.0233333 -0.0316667 0
0.02 -0.0316667 0
0.0166667 -0.0316667 0
0.0133333 -0.0316667 0
0.01 -0.0316667 0
0.00666667 -0.0316667 0
0.00333333 -0.0316667 0
0 -0.0316667 0
0.1 -0.035 0
0.0966667 -0.035 0
0.0933333 -0.035 0
0.09 -0.035 0
0.0866667 -0.035 0
0.0833333 -0.035 0
0.08 -0.035 0
0.0766667 -0.035 0
0.0733333 -0.035 0
0.07 -0.035 0
0.0666667 -0.035 0
0.0633333 -0.035 0
0.06 -0.035 0
0.0566667 -0.035 0
0.0533333 -0.035 0
0.05 -0.035 0
0.0466667 -0.035 0
0.0433333 -0.035 0
0.04 -0.035 0
0.0366667 -0.035 0
0.0333333 -0.035 0
0.03 -0.035 0
0.0266667 -0.035 0
0.0233333 -0.035 0
0.02 -0.035 0
0.0166667 -0.035 0
0.0133333 -0.035 0
0.01 -0.035 0
0.00666667 -0.035 0
0.00333333 -0.035 0
0 -0.035 0
0.1 -0.0383333 0
0.0966667 -0.0383333 0
0.0933333 -0.0383333 0
0.09 -0.0383333 0
0.0866667 -0.0383333 0
0.0833333 -0.0383333 0
0.08 -0.0383333 0
0.0766667 -0.0383333 0
0.0733333 -0.0383333 0
0.07 -0.0383333 0
0.0666667 -0.0383333 0
0.0633333 -0.0383333 0
0.06 -0.0383333 0
0.0566667 -0.0383333 0
0.0533333 -0.0383333 0
0.05 -0.0383333 0
0.0466667 -0.0383333 0
0.0433333 -0.0383333 0
0.04 -0.0383333 0
0.0366667 -0.0383333 0
0.0333333 -0.0383333 0
0.03 -0.0383333 0
0.0266667 -0.0383333 0
0.0233333 -0.0383333 0
0.02 -0.0383333 0
0.0166667 -0.0383333 0
0.0133333 -0.0383333 0
0.01 -0.0383333 0
0.00666667 -0.0383333 0
0.00333333 -0.0383333 0
0 -0.0383333 0
0.1 -0.0416667 0
0.0966667 -0.0416667 0
0.0933333 -0.0416667 0
0.09 -0.0416667 0
0.0866667 -0.0416667 0
0.0833333 -0.0416667 0
0.08 -0.0416667 0
0.0766667 -0.0416667 0
0.0733333 -0.0416667 0
0.07 -0.0416667 0
0.0666667 -0.0416667 0
0.0633333 -0.0416667 0
0.06 -0.0416667 0
0.0566667 -0.0416667 0
0.0533333 -0.0416667 0
0.05 -0.0416667 0
0.0466667 -0.0416667 0
0.0433333 -0.0416667 0
0.04 -0.0416667 0
0.0366667 -0.0416667 0
0.0333333 -0.0416667 0
0.03 -0.0416667 0
0.0266667 -0.0416667 0
0.0233333 -0.0416667 0
0.02 -0.0416667 0
0.0166667 -0.0416667 0
0.0133333 -0.0416667 0
0.01 -0.0416667 0
0.00666667 -0.0416667 0
0.00333333 -0.0416667 0
0 -0.0416667 0
0.1 -0.045 0
0.0966667 -0.045 0
0.0933333 -0.045 0
0.09 -0.045 0
0.0866667 -0.045 0
0.0833333 -0.045 0
0.08 -0.045 0
0.0766667 -0.045 0
0.0733333 -0.045 0
0.07 -0.045 0
0.0666667 -0.045 0
0.0633333 -0.045 0
0.06 -0.045 0
0.0566667 -0.045 0
0.0533333 -0.045 0
0.05 -0.045 0
0.0466667 -0.045 0
0.0433333 -0.045 0
0.04 -0.045 0
0.0366667 -0.045 0
0.0333333 -0.045 0
0.03 -0.045 0
0.0266667 -0.045 0
0.0233333 -0.045 0
0.02 -0.045 0
0.0166667 -0.045 0
0.0133333 -0.045 0
0.01 -0.045 0
0.00666667 -0.045 0
0.00333333 -0.045 0
0 -0.045 0
0.1 -0.0483333 0
0.0966667 -0.0483333 0
0.0933333 -0.0483333 0
0.09 -0.0483333 0
0.0866667 -0.0483333 0
[...]
POINT_DATA 961
SCALARS Temp float 1
LOOKUP_TABLE default
785.715437
769.610819
754.463168
740.305693
727.169140
715.081820
704.069381
694.155015
685.359276
677.700266
671.193525
665.852130
661.686748
658.705618
656.914598
656.317202
656.914599
658.705619
661.686753
665.852137
671.193522
677.700274
685.359290
694.155021
704.069399
715.081823
727.169157
740.305698
754.463189
769.610866
785.715473
769.610844
752.880180
737.143682
722.435858
708.788644
696.231450
684.790920
674.491150
665.353491
657.396750
650.637071
645.088037
640.760733
637.663717
635.803074
635.182456
635.803075
637.663718
640.760739
645.088046
650.637067
657.396759
665.353506
674.491156
684.790939
696.231452
708.788661
722.435862
737.143703
752.880220
769.610867
754.463173
737.143666
720.853316
705.627843
691.500310
678.501161
666.657978
655.995704
646.536442
638.299660
631.302071
625.557738
621.078132
617.872115
615.945987
615.303525
615.945987
617.872116
621.078138
625.557746
631.302068
638.299669
646.536457
655.995710
666.657997
678.501163
691.500328
705.627846
720.853334
737.143703
754.463190
740.305683
722.435828
705.627829
689.918547
675.342093
661.929878
649.710362
638.709280
628.949437
620.450921
613.230974
607.304106
602.682155
599.374262
597.386928
596.724052
597.386929
599.374264
602.682161
607.304115
613.230970
620.450930
628.949452
638.709286
649.710382
661.929879
675.342109
689.918548
705.627845
722.435861
740.305698
727.169146
708.788629
691.500312
675.342110
660.349108
646.553616
633.984905
622.669447
612.630699
603.889323
596.463052
590.366813
585.612782
582.210360
580.166234
579.484415
580.166235
582.210361
585.612788
590.366822
596.463048
603.889331
612.630715
622.669453
633.984924
646.553616
660.349124
675.342110
691.500327
708.788661
727.169158
715.081816
696.231423
678.501152
661.929884
646.553604
632.405446
619.515430
607.910706
597.615329
588.650488
581.034373
574.782291
569.906727
566.417326
564.320944
563.621695
564.320945
566.417327
569.906734
574.782300
581.034369
588.650497
597.615344
607.910712
619.515450
632.405445
646.553620
661.929883
678.501166
696.231455
715.081826
704.069391
684.790908
666.657985
649.710385
633.984910
619.515448
606.332700
594.464433
583.935247
574.766815
566.977738
560.583670
555.597382
552.028737
549.884746
549.169617
549.884747
552.028738
555.597389
560.583679
566.977733
574.766824
583.935263
594.464438
606.332720
619.515447
633.984925
649.710382
666.657997
684.790939
704.069400
694.155017
674.491129
655.995702
638.709293
622.669443
607.910713
594.464422
582.358889
571.619208
562.267484
554.322691
547.800795
542.714823
539.074834
536.887981
536.158555
536.887982
539.074835
542.714830
547.800804
554.322686
562.267493
571.619224
582.358894
594.464442
607.910712
622.669457
638.709290
655.995713
674.491159
694.155025
685.359286
665.353479
646.536449
628.949460
612.630704
597.615346
583.935247
571.619219
560.692793
551.178458
543.095517
536.460216
531.285807
527.582525
525.357646
524.615536
525.357647
527.582526
531.285814
536.460225
543.095512
551.178466
560.692808
571.619224
583.935266
597.615344
612.630719
628.949457
646.536460
665.353509
685.359294
677.700267
657.396728
638.299657
620.450934
603.889317
588.650495
574.766803
562.267484
551.178446
541.522514
533.319280
526.585229
521.333812
517.575416
515.317426
514.564272
515.317426
517.575417
521.333819
526.585239
533.319275
541.522523
551.178462
562.267488
574.766823
588.650492
603.889331
620.450930
638.299668
657.396758
677.700275
671.193519
650.637041
631.302061
613.230979
596.463039
581.034373
566.977718
554.322682
543.095497
533.319272
525.013841
518.195897
512.879058
509.073839
506.787718
506.025181
506.787719
509.073840
512.879065
518.195906
525.013835
533.319280
543.095513
554.322686
566.977738
581.034369
596.463053
613.230975
631.302071
650.637071
671.193527
665.852132
645.088017
625.557737
607.304122
590.366810
574.782300
560.583661
547.800797
536.460207
526.585232
518.195909
511.309097
505.938552
502.094897
499.785684
499.015445
499.785685
502.094898
505.938559
511.309106
518.195903
526.585241
536.460223
547.800802
560.583681
574.782297
590.366824
607.304117
625.557747
645.088046
665.852140
661.686750
640.760711
621.078130
602.682170
585.612777
569.906736
555.597372
542.714824
531.285797
521.333814
512.879068
505.938551
500.526125
496.652496
494.325275
493.549029
494.325276
496.652497
500.526132
505.938561
512.879063
521.333823
531.285813
542.714829
555.597392
569.906733
585.612791
602.682165
621.078141
640.760741
661.686757
658.705616
637.663691
617.872109
599.374273
582.210351
566.417331
552.028722
539.074831
527.582510
517.575413
509.073845
502.094891
496.652491
492.757410
490.417301
489.636756
490.417302
492.757411
496.652498
502.094901
509.073840
517.575422
527.582526
539.074835
552.028742
566.417328
582.210366
599.374268
617.872120
637.663721
658.705624
656.914597
635.803049
615.945981
597.386940
580.166226
564.320950
549.884732
536.887979
525.357632
515.317424
506.787725
499.785679
494.325271
490.417302
488.069450
487.286322
488.069451
490.417303
494.325279
499.785689
506.787720
515.317433
525.357648
536.887984
549.884752
564.320947
580.166241
597.386935
615.945992
635.803080
656.914605
656.317201
635.182431
615.303520
596.724064
579.484407
563.621701
549.169603
536.158553
524.615523
514.564270
506.025189
499.015440
493.549026
489.636757
487.286323
486.502334
487.286324
489.636759
493.549034
499.015451
506.025184
514.564280
524.615540
536.158558
549.169624
563.621698
579.484422
596.724060
615.303532
635.182462
656.317210
656.914597
635.803049
615.945981
597.386940
580.166226
564.320949
549.884732
536.887979
525.357632
515.317424
506.787725
499.785679
494.325272
490.417302
488.069450
487.286323
488.069451
490.417303
494.325279
499.785690
506.787721
515.317434
525.357649
536.887985
549.884753
564.320948
580.166242
597.386936
615.945993
635.803081
656.914606
658.705616
637.663691
617.872109
599.374273
582.210351
566.417330
552.028722
539.074831
527.582510
517.575414
509.073845
502.094892
496.652492
492.757410
490.417302
489.636757
490.417303
492.757412
496.652500
502.094902
509.073841
517.575424
527.582528
539.074837
552.028744
566.417329
582.210367
599.374270
617.872122
637.663723
658.705625
661.686749
640.760711
621.078130
602.682169
585.612777
569.906736
555.597372
542.714824
531.285797
521.333815
512.879069
505.938552
500.526126
496.652497
494.325276
493.549031
494.325277
496.652499
500.526134
505.938563
512.879065
521.333825
531.285815
542.714831
555.597394
569.906736
585.612794
602.682168
621.078144
640.760744
661.686760
665.852132
645.088016
625.557736
607.304121
590.366810
574.782300
560.583661
547.800797
536.460207
526.585233
518.195910
511.309098
505.938553
502.094898
499.785686
499.015447
499.785687
502.094900
505.938562
511.309109
518.195906
526.585244
536.460226
547.800805
560.583684
574.782301
590.366828
607.304121
625.557751
645.088050
665.852144
671.193522
650.637044
631.302064
613.230982
596.463042
581.034376
566.977722
554.322686
543.095502
533.319277
525.013846
518.195903
512.879064
509.073845
506.787725
506.025188
506.787726
509.073847
512.879072
518.195914
525.013844
533.319288
543.095521
554.322695
566.977746
581.034378
596.463062
613.230984
631.302080
650.637079
671.193535
677.700262
657.396723
638.299652
620.450929
603.889312
588.650490
574.766798
562.267479
551.178442
541.522510
533.319276
526.585226
521.333809
517.575413
515.317423
514.564269
515.317424
517.575415
521.333818
526.585238
533.319274
541.522523
551.178462
562.267489
574.766824
588.650494
603.889332
620.450931
638.299670
657.396760
677.700277
685.359289
665.353482
646.536452
628.949464
612.630709
597.615351
583.935252
571.619225
560.692799
551.178464
543.095524
536.460224
531.285815
527.582533
525.357655
524.615546
525.357656
527.582536
531.285824
536.460236
543.095523
551.178478
560.692820
571.619236
583.935278
597.615356
612.630731
628.949469
646.536472
665.353521
685.359306
694.155009
674.491121
655.995694
638.709286
622.669435
607.910706
594.464415
582.358883
571.619202
562.267479
554.322686
547.800790
542.714818
539.074830
536.887978
536.158552
536.887979
539.074833
542.714828
547.800803
554.322685
562.267493
571.619224
582.358895
594.464443
607.910713
622.669459
638.709293
655.995716
674.491162
694.155029
704.069397
684.790915
666.657992
649.710392
633.984918
619.515457
606.332710
594.464444
583.935259
574.766828
566.977751
560.583684
555.597397
552.028752
549.884762
549.169633
549.884763
552.028755
555.597406
560.583697
566.977751
574.766842
583.935281
594.464457
606.332739
619.515466
633.984945
649.710402
666.658017
684.790958
704.069419
715.081812
696.231419
678.501149
661.929881
646.553602
632.405444
619.515429
607.910706
597.615329
588.650489
581.034375
574.782293
569.906730
566.417329
564.320948
563.621699
564.320950
566.417333
569.906740
574.782306
581.034376
588.650504
597.615352
607.910720
619.515459
632.405455
646.553630
661.929894
678.501177
696.231466
715.081838
727.169130
708.788613
691.500297
675.342094
660.349093
646.553601
633.984891
622.669434
612.630687
603.889311
596.463041
590.366802
585.612771
582.210350
580.166225
579.484406
580.166226
582.210353
585.612781
590.366816
596.463042
603.889326
612.630710
622.669450
633.984922
646.553615
660.349124
675.342111
691.500329
708.788664
727.169161
740.305681
722.435825
705.627828
689.918546
675.342094
661.929881
649.710365
638.709285
628.949443
620.450927
613.230981
607.304114
602.682164
599.374272
597.386938
596.724062
597.386940
599.374275
602.682173
607.304127
613.230983
620.450943
628.949467
638.709301
649.710397
661.929896
675.342127
689.918567
705.627865
722.435882
740.305718
754.463154
737.143648
720.853298
705.627827
691.500296
678.501148
666.657965
655.995693
646.536431
638.299650
631.302062
625.557729
621.078124
617.872107
615.945980
615.303519
615.945981
617.872111
621.078134
625.557742
631.302064
638.299666
646.536455
655.995710
666.657998
678.501165
691.500331
705.627852
720.853342
737.143713
754.463202
769.610840
752.880178
737.143684
722.435863
708.788652
696.231459
684.790931
674.491163
665.353505
657.396765
650.637087
645.088054
640.760750
637.663735
635.803093
635.182475
635.803095
637.663738
640.760760
645.088067
650.637089
657.396781
665.353529
674.491180
684.790963
696.231477
708.788688
722.435891
737.143734
752.880254
769.610908
785.715408
769.610796
754.463154
740.305682
727.169132
715.081813
704.069375
694.155010
685.359272
677.700263
671.193523
665.852128
661.686746
658.705617
656.914598
656.317203
656.914600
658.705620
661.686755
665.852140
671.193525
677.700278
685.359295
694.155027
704.069406
715.081831
727.169167
740.305710
754.463205
769.610887
785.715507
