# vtk DataFile Version 2.0
Unstructured Grid Example
ASCII
DATASET UNSTRUCTURED_GRID

POINTS 961 float
0.1 0.005 0
0.0966667 0.005 0
0.0933333 0.005 0
0.09 0.005 0
0.0866667 0.005 0
0.0833333 0.005 0
0.08 0.005 0
0.0766667 0.005 0
0.0733333 0.005 0
0.07 0.005 0
0.0666667 0.005 0
0.0633333 0.005 0
0.06 0.005 0
0.0566667 0.005 0
0.0533333 0.005 0
0.05 0.005 0
0.0466667 0.005 0
0.0433333 0.005 0
0.04 0.005 0
0.0366667 0.005 0
0.0333333 0.005 0
0.03 0.005 0
0.0266667 0.005 0
0.0233333 0.005 0
0.02 0.005 0
0.0166667 0.005 0
0.0133333 0.005 0
0.01 0.005 0
0.00666667 0.005 0
0.00333333 0.005 0
0 0.005 0
0.1 0.00166667 0
0.0966667 0.00166667 0
0.0933333 0.00166667 0
0.09 0.00166667 0
0.0866667 0.00166667 0
0.0833333 0.00166667 0
0.08 0.00166667 0
0.0766667 0.00166667 0
0.0733333 0.00166667 0
0.07 0.00166667 0
0.0666667 0.00166667 0
0.0633333 0.00166667 0
0.06 0.00166667 0
0.0566667 0.00166667 0
0.0533333 0.00166667 0
0.05 0.00166667 0
0.0466667 0.00166667 0
0.0433333 0.00166667 0
0.04 0.00166667 0
0.0366667 0.00166667 0
0.0333333 0.00166667 0
0.03 0.00166667 0
0.0266667 0.00166667 0
0.0233333 0.00166667 0
0.02 0.00166667 0
0.0166667 0.00166667 0
0.0133333 0.00166667 0
0.01 0.00166667 0
0.00666667 0.00166667 0
0.00333333 0.00166667 0
0 0.00166667 0
0.1 -0.00166667 0
0.0966667 -0.00166667 0
0.0933333 -0.00166667 0
0.09 -0.00166667 0
0.0866667 -0.00166667 0
0.0833333 -0.00166667 0
0.08 -0.00166667 0
0.0766667 -0.00166667 0
0.0733333 -0.00166667 0
0.07 -0.00166667 0
0.0666667 -0.00166667 0
0.0633333 -0.00166667 0
0.06 -0.00166667 0
0.0566667 -0.00166667 0
0.0533333 -0.00166667 0
0.05 -0.00166667 0
0.0466667 -0.00166667 0
0.0433333 -0.00166667 0
0.04 -0.00166667 0
0.0366667 -0.00166667 0
0.0333333 -0.00166667 0
0.03 -0.00166667 0
0.0266667 -0.00166667 0
0.0233333 -0.00166667 0
0.02 -0.00166667 0
0.0166667 -0.00166667 0
0.0133333 -0.00166667 0
0.01 -0.00166667 0
0.00666667 -0.00166667 0
0.00333333 -0.00166667 0
0 -0.00166667 0
0.1 -0.005 0
0.0966667 -0.005 0
0.0933333 -0.005 0
0.09 -0.005 0
0.0866667 -0.005 0
0.0833333 -0.005 0
0.08 -0.005 0
0.0766667 -0.005 0
0.0733333 -0.005 0
0.07 -0.005 0
0.0666667 -0.005 0
0.0633333 -0.005 0
0.06 -0.005 0
0.0566667 -0.005 0
0.0533333 -0.005 0
0.05 -0.005 0
0.0466667 -0.005 0
0.0433333 -0.005 0
0.04 -0.005 0
0.0366667 -0.005 0
0.0333333 -0.005 0
0.03 -0.005 0
0.0266667 -0.005 0
0.0233333 -0.005 0
0.02 -0.005 0
0.0166667 -0.005 0
0.0133333 -0.005 0
0.01 -0.005 0
0.00666667 -0.005 0
0.00333333 -0.005 0
0 -0.005 0
0.1 -0.00833333 0
0.0966667 -0.00833333 0
0.0933333 -0.00833333 0
0.09 -0.00833333 0
0.0866667 -0.00833333 0
0.0833333 -0.00833333 0
0.08 -0.00833333 0
0.0766667 -0.00833333 0
0.0733333 -0.00833333 0
0.07 -0.00833333 0
0.0666667 -0.00833333 0
0.0633333 -0.00833333 0
0.06 -0.00833333 0
0.0566667 -0.00833333 0
0.0533333 -0.00833333 0
0.05 -0.00833333 0
0.0466667 -0.00833333 0
0.0433333 -0.00833333 0
0.04 -0.00833333 0
0.0366667 -0.00833333 0
0.0333333 -0.00833333 0
0.03 -0.00833333 0
0.0266667 -0.00833333 0
0.0233333 -0.00833333 0
0.02 -0.00833333 0
0.0166667 -0.00833333 0
0.0133333 -0.00833333 0
0.01 -0.00833333 0
0.00666667 -0.00833333 0
0.00333333 -0.00833333 0
0 -0.00833333 0
0.1 -0.0116667 0
0.0966667 -0.0116667 0
0.0933333 -0.0116667 0
0.09 -0.0116667 0
0.0866667 -0.0116667 0
0.0833333 -0.0116667 0
0.08 -0.0116667 0
0.0766667 -0.0116667 0
0.0733333 -0.0116667 0
0.07 -0.0116667 0
0.0666667 -0.0116667 0
0.0633333 -0.0116667 0
0.06 -0.0116667 0
0.0566667 -0.0116667 0
0.0533333 -0.0116667 0
0.05 -0.0116667 0
0.0466667 -0.0116667 0
0.0433333 -0.0116667 0
0.04 -0.0116667 0
0.0366667 -0.0116667 0
0.0333333 -0.0116667 0
0.03 -0.0116667 0
0.0266667 -0.0116667 0
0.0233333 -0.0116667 0
0.02 -0.0116667 0
0.0166667 -0.0116667 0
0.0133333 -0.0116667 0
0.01 -0.0116667 0
0.00666667 -0.0116667 0
0.00333333 -0.0116667 0
0 -0.0116667 0
0.1 -0.015 0
0.0966667 -0.015 0
0.0933333 -0.015 0
0.09 -0.015 0
0.0866667 -0.015 0
0.0833333 -0.015 0
0.08 -0.015 0
0.0766667 -0.015 0
0.0733333 -0.015 0
0.07 -0.015 0
0.0666667 -0.015 0
0.0633333 -0.015 0
0.06 -0.015 0
0.0566667 -0.015 0
0.0533333 -0.015 0
0.05 -0.015 0
0.0466667 -0.015 0
0.0433333 -0.015 0
0.04 -0.015 0
0.0366667 -0.015 0
0.0333333 -0.015 0
0.03 -0.015 0
0.0266667 -0.015 0
0.0233333 -0.015 0
0.02 -0.015 0
0.0166667 -0.015 0
0.0133333 -0.015 0
0.01 -0.015 0
0.00666667 -0.015 0
0.00333333 -0.015 0
0 -0.015 0
0.1 -0.0183333 0
0.0966667 -0.0183333 0
0.0933333 -0.0183333 0
0.09 -0.0183333 0
0.0866667 -0.0183333 0
0.0833333 -0.0183333 0
0.08 -0.0183333 0
0.0766667 -0.0183333 0
0.0733333 -0.0183333 0
0.07 -0.0183333 0
0.0666667 -0.0183333 0
0.0633333 -0.0183333 0
0.06 -0.0183333 0
0.0566667 -0.0183333 0
0.0533333 -0.0183333 0
0.05 -0.0183333 0
0.0466667 -0.0183333 0
0.0433333 -0.0183333 0
0.04 -0.0183333 0
0.0366667 -0.0183333 0
0.0333333 -0.0183333 0
0.03 -0.0183333 0
0.0266667 -0.0183333 0
0.0233333 -0.0183333 0
0.02 -0.0183333 0
0.0166667 -0.0183333 0
0.0133333 -0.0183333 0
0.01 -0.0183333 0
0.00666667 -0.0183333 0
0.00333333 -0.0183333 0
0 -0.0183333 0
0.1 -0.0216667 0
0.0966667 -0.0216667 0
0.0933333 -0.0216667 0
0.09 -0.0216667 0
0.0866667 -0.0216667 0
0.0833333 -0.0216667 0
0.08 -0.0216667 0
0.0766667 -0.0216667 0
0.0733333 -0.0216667 0
0.07 -0.0216667 0
0.0666667 -0.0216667 0
0.0633333 -0.0216667 0
0.06 -0.0216667 0
0.0566667 -0.0216667 0
0.0533333 -0.0216667 0
0.05 -0.0216667 0
0.0466667 -0.0216667 0
0.0433333 -0.0216667 0
0.04 -0.0216667 0
0.0366667 -0.0216667 0
0.0333333 -0.0216667 0
0.03 -0.0216667 0
0.0266667 -0.0216667 0
0.0233333 -0.0216667 0
0.02 -0.0216667 0
0.0166667 -0.0216667 0
0.0133333 -0.0216667 0
0.01 -0.0216667 0
0.00666667 -0.0216667 0
0.00333333 -0.0216667 0
0 -0.0216667 0
0.1 -0.025 0
0.0966667 -0.025 0
0.0933333 -0.025 0
0.09 -0.025 0
0.0866667 -0.025 0
0.0833333 -0.025 0
0.08 -0.025 0
0.0766667 -0.025 0
0.0733333 -0.025 0
0.07 -0.025 0
0.0666667 -0.025 0
0.0633333 -0.025 0
0.06 -0.025 0
0.0566667 -0.025 0
0.0533333 -0.025 0
0.05 -0.025 0
0.0466667 -0.025 0
0.0433333 -0.025 0
0.04 -0.025 0
0.0366667 -0.025 0
0.0333333 -0.025 0
0.03 -0.025 0
0.0266667 -0.025 0
0.0233333 -0.025 0
0.02 -0.025 0
0.0166667 -0.025 0
0.0133333 -0.025 0
0.01 -0.025 0
0.00666667 -0.025 0
0.00333333 -0.025 0
0 -0.025 0
0.1 -0.0283333 0
0.0966667 -0.0283333 0
0.0933333 -0.0283333 0
0.09 -0.0283333 0
0.0866667 -0.0283333 0
0.0833333 -0.0283333 0
0.08 -0.0283333 0
0.0766667 -0.0283333 0
0.0733333 -0.0283333 0
0.07 -0.0283333 0
0.0666667 -0.0283333 0
0.0633333 -0.0283333 0
0.06 -0.0283333 0
0.0566667 -0.0283333 0
0.0533333 -0.0283333 0
0.05 -0.0283333 0
0.0466667 -0.0283333 0
0.0433333 -0.0283333 0
0.04 -0.0283333 0
0.0366667 -0.0283333 0
0.0333333 -0.0283333 0
0.03 -0.0283333 0
0.0266667 -0.0283333 0
0.0233333 -0.0283333 0
0.02 -0.0283333 0
0.0166667 -0.0283333 0
0.0133333 -0.0283333 0
0.01 -0.0283333 0
0.00666667 -0.0283333 0
0.00333333 -0.0283333 0
0 -0.0283333 0
0.1 -0.0316667 0
0.0966667 -0.0316667 0
0.0933333 -0.0316667 0
0.09 -0.0316667 0
0.0866667 -0.0316667 0
0.0833333 -0.0316667 0
0.08 -0.0316667 0
0.0766667 -0.0316667 0
0.0733333 -0.0316667 0
0.07 -0.0316667 0
0.0666667 -0.0316667 0
0.0633333 -0.0316667 0
0.06 -0.0316667 0
0.0566667 -0.0316667 0
0.0533333 -0.0316667 0
0.05 -0.0316667 0
0.0466667 -0.0316667 0
0.0433333 -0.0316667 0
0.04 -0.0316667 0
0.0366667 -0.0316667 0
0.0333333 -0.0316667 0
0.03 -0.0316667 0
0.0266667 -0.0316667 0
0.0233333 -0.0316667 0
0.02 -0.0316667 0
0.0166667 -0.0316667 0
0.0133333 -0.0316667 0
0.01 -0.0316667 0
0.00666667 -0.0316667 0
0.00333333 -0.0316667 0
0 -0.0316667 0
0.1 -0.035 0
0.0966667 -0.035 0
0.0933333 -0.035 0
0.09 -0.035 0
0.0866667 -0.035 0
0.0833333 -0.035 0
0.08 -0.035 0
0.0766667 -0.035 0
0.0733333 -0.035 0
0.07 -0.035 0
0.0666667 -0.035 0
0.0633333 -0.035 0
0.06 -0.035 0
0.0566667 -0.035 0
0.0533333 -0.035 0
0.05 -0.035 0
0.0466667 -0.035 0
0.0433333 -0.035 0
0.04 -0.035 0
0.0366667 -0.035 0
0.0333333 -0.035 0
0.03 -0.035 0
0.0266667 -0.035 0
0.0233333 -0.035 0
0.02 -0.035 0
0.0166667 -0.035 0
0.0133333 -0.035 0
0.01 -0.035 0
0.00666667 -0.035 0
0.00333333 -0.035 0
0 -0.035 0
0.1 -0.0383333 0
0.0966667 -0.0383333 0
0.0933333 -0.0383333 0
0.09 -0.0383333 0
0.0866667 -0.0383333 0
0.0833333 -0.0383333 0
0.08 -0.0383333 0
0.0766667 -0.0383333 0
0.0733333 -0.0383333 0
0.07 -0.0383333 0
0.0666667 -0.0383333 0
0.0633333 -0.0383333 0
0.06 -0.0383333 0
0.0566667 -0.0383333 0
0.0533333 -0.0383333 0
0.05 -0.0383333 0
0.0466667 -0.0383333 0
0.0433333 -0.0383333 0
0.04 -0.0383333 0
0.0366667 -0.0383333 0
0.0333333 -0.0383333 0
0.03 -0.0383333 0
0.0266667 -0.0383333 0
0.0233333 -0.0383333 0
0.02 -0.0383333 0
0.0166667 -0.0383333 0
0.0133333 -0.0383333 0
0.01 -0.0383333 0
0.00666667 -0.0383333 0
0.00333333 -0.0383333 0
0 -0.0383333 0
0.1 -0.0416667 0
0.0966667 -0.0416667 0
0.0933333 -0.0416667 0
0.09 -0.0416667 0
0.0866667 -0.0416667 0
0.0833333 -0.0416667 0
0.08 -0.0416667 0
0.0766667 -0.0416667 0
0.0733333 -0.0416667 0
0.07 -0.0416667 0
0.0666667 -0.0416667 0
0.0633333 -0.0416667 0
0.06 -0.0416667 0
0.0566667 -0.0416667 0
0.0533333 -0.0416667 0
0.05 -0.0416667 0
0.0466667 -0.0416667 0
0.0433333 -0.0416667 0
0.04 -0.0416667 0
0.0366667 -0.0416667 0
0.0333333 -0.0416667 0
0.03 -0.0416667 0
0.0266667 -0.0416667 0
0.0233333 -0.0416667 0
0.02 -0.0416667 0
0.0166667 -0.0416667 0
0.0133333 -0.0416667 0
0.01 -0.0416667 0
0.00666667 -0.0416667 0
0.00333333 -0.0416667 0
0 -0.0416667 0
0.1 -0.045 0
0.0966667 -0.045 0
0.0933333 -0.045 0
0.09 -0.045 0
0.0866667 -0.045 0
0.0833333 -0.045 0
0.08 -0.045 0
0.0766667 -0.045 0
0.0733333 -0.045 0
0.07 -0.045 0
0.0666667 -0.045 0
0.0633333 -0.045 0
0.06 -0.045 0
0.0566667 -0.045 0
0.0533333 -0.045 0
0.05 -0.045 0
0.0466667 -0.045 0
0.0433333 -0.045 0
0.04 -0.045 0
0.0366667 -0.045 0
0.0333333 -0.045 0
0.03 -0.045 0
0.0266667 -0.045 0
0.0233333 -0.045 0
0.02 -0.045 0
0.0166667 -0.045 0
0.0133333 -0.045 0
0.01 -0.045 0
0.00666667 -0.045 0
0.00333333 -0.045 0
0 -0.045 0
0.1 -0.0483333 0
0.0966667 -0.0483333 0
0.0933333 -0.0483333 0
0.09 -0.0483333 0
0.0866667 -0.0483333 0
[...]
POINT_DATA 961
SCALARS Temp float 1
LOOKUP_TABLE default
988.315296
980.084828
972.340177
965.098425
958.375560
952.186460
946.544770
941.462978
936.952284
933.022674
929.682815
926.940080
924.800536
923.268908
922.348575
922.041571
922.348575
923.268909
924.800540
926.940084
929.682814
933.022678
936.952292
941.462981
946.544780
952.186462
958.375569
965.098429
972.340188
980.084853
988.315315
980.084841
971.534364
963.488590
955.965274
948.981018
942.551281
936.690238
931.410861
926.724789
922.642392
919.172677
916.323302
914.100572
912.509393
911.553276
911.234336
911.553276
912.509393
914.100575
916.323307
919.172676
922.642397
926.724797
931.410865
936.690249
942.551283
948.981027
955.965277
963.488601
971.534385
980.084854
972.340179
963.488582
955.159462
947.371199
940.140981
933.484811
927.417362
921.952063
917.100963
912.874798
909.282892
906.333172
904.032164
902.384949
901.395161
901.064989
901.395161
902.384950
904.032167
906.333176
909.282890
912.874803
917.100972
921.952067
927.417373
933.484812
940.140991
947.371202
955.159472
963.488601
972.340189
965.098421
955.965258
947.371192
939.335188
931.874979
925.007079
918.746627
913.107479
908.102068
903.741470
900.035307
896.991757
894.617555
892.917943
891.896671
891.555996
891.896671
892.917944
894.617559
896.991762
900.035305
903.741475
908.102076
913.107483
918.746637
925.007080
931.874989
939.335190
947.371202
955.965276
965.098429
958.375562
948.981010
940.140982
931.874988
924.201268
917.136809
910.697183
904.896644
899.747978
895.262581
891.450347
888.319691
885.877540
884.129285
883.078784
882.728359
883.078784
884.129286
885.877544
888.319696
891.450345
895.262586
899.747987
904.896648
910.697194
917.136810
924.201277
931.874989
940.140991
948.981027
958.375569
952.186457
942.551267
933.484806
925.007082
917.136803
909.891391
903.286817
897.337699
892.057152
887.456863
883.546981
880.336135
877.831429
876.038393
874.960984
874.601583
874.960984
876.038394
877.831433
880.336140
883.546979
887.456868
892.057161
897.337703
903.286828
909.891391
917.136812
925.007082
933.484814
942.551284
952.186464
946.544775
936.690232
927.417365
918.746638
910.697186
903.286826
896.531893
890.447338
885.046575
880.341557
876.342663
873.058719
870.496992
868.663136
867.561198
867.193615
867.561199
868.663137
870.496995
873.058724
876.342661
880.341562
885.046584
890.447342
896.531904
903.286826
910.697195
918.746638
927.417373
936.690249
946.544781
941.462978
931.410850
921.952062
913.107486
904.896642
897.337703
890.447333
884.240783
878.731734
873.932379
869.853307
866.503520
863.890430
862.019805
860.895773
860.520820
860.895774
862.019806
863.890433
866.503525
869.853305
873.932384
878.731743
884.240786
890.447344
897.337703
904.896650
913.107485
921.952069
931.410867
941.462983
936.952289
926.724782
917.100967
908.102080
899.747981
892.057161
885.046575
878.731739
873.126574
868.243485
864.093246
860.685015
858.026334
856.123072
854.979430
854.597935
854.979430
856.123073
858.026338
860.685020
864.093244
868.243491
873.126583
878.731743
885.046586
892.057161
899.747989
908.102079
917.100973
926.724799
936.952294
933.022674
922.642380
912.874796
903.741477
895.262578
887.456867
880.341551
873.932379
868.243479
863.287443
859.075204
855.616058
852.917660
850.985966
849.825239
849.438045
849.825239
850.985967
852.917664
855.616063
859.075202
863.287448
868.243488
873.932382
880.341562
887.456866
895.262586
903.741476
912.874803
922.642397
933.022679
929.682812
919.172662
909.282886
900.035309
891.450340
883.546980
876.342652
869.853302
864.093235
859.075199
854.810265
851.307846
848.575691
846.619831
845.444584
845.052546
845.444584
846.619832
848.575695
851.307851
854.810263
859.075204
864.093244
869.853305
876.342663
883.546980
891.450348
900.035308
909.282893
919.172678
929.682816
926.940081
916.323291
906.333171
896.991765
888.319690
880.336139
873.058714
866.503521
860.685010
855.616059
851.307852
847.769896
845.010019
843.034315
841.847143
841.451127
841.847143
843.034316
845.010023
847.769901
851.307850
855.616065
860.685019
866.503524
873.058725
880.336139
888.319698
896.991764
906.333177
916.323308
926.940086
924.800537
914.100560
904.032163
894.617563
885.877538
877.831433
870.496986
863.890430
858.026328
852.917660
848.575696
845.010019
842.228517
840.237333
839.040858
838.641740
839.040859
840.237333
842.228521
845.010024
848.575694
852.917666
858.026337
863.890433
870.496997
877.831432
885.877546
894.617561
904.032169
914.100577
924.800542
923.268907
912.509379
902.384945
892.917948
884.129281
876.038395
868.663128
862.019803
856.123065
850.985964
846.619834
843.034312
840.237330
838.235063
837.031930
836.630591
837.031931
838.235064
840.237334
843.034318
846.619832
850.985969
856.123074
862.019806
868.663139
876.038395
884.129289
892.917947
902.384952
912.509396
923.268912
922.348574
911.553262
901.395158
891.896676
883.078779
874.960986
867.561190
860.895772
854.979422
849.825237
845.444587
841.847140
839.040856
837.031931
835.824796
835.422122
835.824797
837.031932
839.040860
841.847146
845.444585
849.825243
854.979432
860.895775
867.561202
874.960985
883.078788
891.896675
901.395165
911.553279
922.348579
922.041570
911.234322
901.064986
891.556001
882.728355
874.601585
867.193608
860.520819
854.597928
849.438043
845.052549
841.451125
838.641738
836.630591
835.422122
835.019002
835.422122
836.630592
838.641742
841.451131
845.052548
849.438049
854.597937
860.520822
867.193619
874.601585
882.728363
891.556000
901.064993
911.234339
922.041575
922.348573
911.553262
901.395158
891.896676
883.078779
874.960986
867.561190
860.895772
854.979422
849.825237
845.444587
841.847140
839.040856
837.031931
835.824796
835.422122
835.824797
837.031932
839.040861
841.847146
845.444585
849.825243
854.979432
860.895775
867.561202
874.960986
883.078789
891.896675
901.395165
911.553280
922.348579
923.268907
912.509379
902.384945
892.917948
884.129280
876.038395
868.663128
862.019803
856.123065
850.985964
846.619835
843.034312
840.237330
838.235064
837.031931
836.630591
837.031931
838.235065
840.237335
843.034318
846.619833
850.985970
856.123075
862.019807
868.663140
876.038396
884.129290
892.917948
902.384953
912.509397
923.268913
924.800537
914.100560
904.032162
894.617562
885.877538
877.831433
870.496986
863.890430
858.026328
852.917661
848.575696
845.010019
842.228518
840.237333
839.040859
838.641741
839.040860
840.237334
842.228522
845.010025
848.575695
852.917667
858.026339
863.890434
870.496998
877.831434
885.877548
894.617563
904.032171
914.100578
924.800543
926.940081
916.323291
906.333170
896.991765
888.319689
880.336139
873.058714
866.503521
860.685010
855.616060
851.307852
847.769896
845.010020
843.034316
841.847144
841.451128
841.847145
843.034317
845.010025
847.769903
851.307851
855.616066
860.685021
866.503526
873.058727
880.336141
888.319700
896.991766
906.333179
916.323310
926.940088
929.682813
919.172663
909.282887
900.035311
891.450342
883.546982
876.342654
869.853305
864.093237
859.075202
854.810268
851.307849
848.575694
846.619835
845.444587
845.052549
845.444588
846.619836
848.575699
851.307855
854.810267
859.075209
864.093248
869.853310
876.342668
883.546984
891.450353
900.035313
909.282897
919.172682
929.682821
933.022671
922.642378
912.874794
903.741474
895.262575
887.456864
880.341548
873.932377
868.243477
863.287441
859.075202
855.616056
852.917658
850.985964
849.825237
849.438043
849.825238
850.985966
852.917663
855.616063
859.075201
863.287448
868.243488
873.932383
880.341562
887.456867
895.262587
903.741477
912.874804
922.642398
933.022680
936.952291
926.724784
917.100968
908.102081
899.747983
892.057163
885.046578
878.731742
873.126577
868.243489
864.093249
860.685019
858.026338
856.123077
854.979434
854.597940
854.979435
856.123078
858.026343
860.685026
864.093249
868.243496
873.126589
878.731749
885.046592
892.057167
899.747995
908.102085
917.100980
926.724805
936.952300
941.462974
931.410846
921.952058
913.107482
904.896638
897.337699
890.447329
884.240779
878.731731
873.932376
869.853304
866.503517
863.890427
862.019803
860.895771
860.520819
860.895772
862.019805
863.890432
866.503524
869.853305
873.932384
878.731743
884.240787
890.447345
897.337704
904.896651
913.107487
921.952071
931.410869
941.462985
946.544778
936.690235
927.417369
918.746642
910.697190
903.286830
896.531898
890.447344
885.046581
880.341563
876.342669
873.058726
870.496999
868.663143
867.561206
867.193623
867.561207
868.663145
870.497004
873.058733
876.342670
880.341571
885.046594
890.447352
896.531914
903.286836
910.697205
918.746648
927.417383
936.690259
946.544791
952.186455
942.551265
933.484804
925.007080
917.136802
909.891390
903.286816
897.337699
892.057152
887.456864
883.546982
880.336136
877.831430
876.038395
874.960986
874.601585
874.960987
876.038397
877.831436
880.336143
883.546983
887.456872
892.057165
897.337707
903.286832
909.891397
917.136818
925.007088
933.484820
942.551290
952.186470
958.375554
948.981001
940.140974
931.874980
924.201261
917.136802
910.697176
904.896637
899.747972
895.262575
891.450341
888.319686
885.877535
884.129280
883.078779
882.728355
883.078780
884.129282
885.877540
888.319693
891.450343
895.262583
899.747985
904.896646
910.697193
917.136810
924.201278
931.874990
940.140992
948.981029
958.375571
965.098419
955.965257
947.371192
939.335188
931.874980
925.007080
918.746628
913.107482
908.102071
903.741474
900.035310
896.991761
894.617560
892.917948
891.896676
891.556001
891.896677
892.917950
894.617565
896.991769
900.035312
903.741482
908.102084
913.107491
918.746646
925.007089
931.874998
939.335199
947.371212
955.965287
965.098440
972.340169
963.488572
955.159453
947.371191
940.140974
933.484804
927.417355
921.952058
917.100958
912.874793
909.282887
906.333167
904.032160
902.384945
901.395157
901.064985
901.395158
902.384947
904.032165
906.333174
909.282889
912.874802
917.100971
921.952067
927.417373
933.484814
940.140993
947.371205
955.159477
963.488607
972.340194
980.084839
971.534362
963.488591
955.965276
948.981021
942.551286
936.690244
931.410868
926.724796
922.642400
919.172685
916.323311
914.100581
912.509402
911.553285
911.234346
911.553286
912.509404
914.100586
916.323318
919.172687
922.642408
926.724809
931.410877
936.690261
942.551296
948.981041
955.965291
963.488617
971.534403
980.084875
988.315281
980.084817
972.340169
965.098420
958.375555
952.186456
946.544767
941.462975
936.952282
933.022672
929.682814
926.940079
924.800536
923.268908
922.348575
922.041571
922.348575
923.268910
924.800541
926.940086
929.682816
933.022681
936.952295
941.462984
946.544784
952.186466
958.375574
965.098435
972.340196
980.084864
988.315332
