# vtk DataFile Version 2.0
Unstructured Grid Example
ASCII
DATASET UNSTRUCTURED_GRID

POINTS 961 float
0.1 0.005 0
0.0966667 0.005 0
0.0933333 0.005 0
0.09 0.005 0
0.0866667 0.005 0
0.0833333 0.005 0
0.08 0.005 0
0.0766667 0.005 0
0.0733333 0.005 0
0.07 0.005 0
0.0666667 0.005 0
0.0633333 0.005 0
0.06 0.005 0
0.0566667 0.005 0
0.0533333 0.005 0
0.05 0.005 0
0.0466667 0.005 0
0.0433333 0.005 0
0.04 0.005 0
0.0366667 0.005 0
0.0333333 0.005 0
0.03 0.005 0
0.0266667 0.005 0
0.0233333 0.005 0
0.02 0.005 0
0.0166667 0.005 0
0.0133333 0.005 0
0.01 0.005 0
0.00666667 0.005 0
0.00333333 0.005 0
0 0.005 0
0.1 0.00166667 0
0.0966667 0.00166667 0
0.0933333 0.00166667 0
0.09 0.00166667 0
0.0866667 0.00166667 0
0.0833333 0.00166667 0
0.08 0.00166667 0
0.0766667 0.00166667 0
0.0733333 0.00166667 0
0.07 0.00166667 0
0.0666667 0.00166667 0
0.0633333 0.00166667 0
0.06 0.00166667 0
0.0566667 0.00166667 0
0.0533333 0.00166667 0
0.05 0.00166667 0
0.0466667 0.00166667 0
0.0433333 0.00166667 0
0.04 0.00166667 0
0.0366667 0.00166667 0
0.0333333 0.00166667 0
0.03 0.00166667 0
0.0266667 0.00166667 0
0.0233333 0.00166667 0
0.02 0.00166667 0
0.0166667 0.00166667 0
0.0133333 0.00166667 0
0.01 0.00166667 0
0.00666667 0.00166667 0
0.00333333 0.00166667 0
0 0.00166667 0
0.1 -0.00166667 0
0.0966667 -0.00166667 0
0.0933333 -0.00166667 0
0.09 -0.00166667 0
0.0866667 -0.00166667 0
0.0833333 -0.00166667 0
0.08 -0.00166667 0
0.0766667 -0.00166667 0
0.0733333 -0.00166667 0
0.07 -0.00166667 0
0.0666667 -0.00166667 0
0.0633333 -0.00166667 0
0.06 -0.00166667 0
0.0566667 -0.00166667 0
0.0533333 -0.00166667 0
0.05 -0.00166667 0
0.0466667 -0.00166667 0
0.0433333 -0.00166667 0
0.04 -0.00166667 0
0.0366667 -0.00166667 0
0.0333333 -0.00166667 0
0.03 -0.00166667 0
0.0266667 -0.00166667 0
0.0233333 -0.00166667 0
0.02 -0.00166667 0
0.0166667 -0.00166667 0
0.0133333 -0.00166667 0
0.01 -0.00166667 0
0.00666667 -0.00166667 0
0.00333333 -0.00166667 0
0 -0.00166667 0
0.1 -0.005 0
0.0966667 -0.005 0
0.0933333 -0.005 0
0.09 -0.005 0
0.0866667 -0.005 0
0.0833333 -0.005 0
0.08 -0.005 0
0.0766667 -0.005 0
0.0733333 -0.005 0
0.07 -0.005 0
0.0666667 -0.005 0
0.0633333 -0.005 0
0.06 -0.005 0
0.0566667 -0.005 0
0.0533333 -0.005 0
0.05 -0.005 0
0.0466667 -0.005 0
0.0433333 -0.005 0
0.04 -0.005 0
0.0366667 -0.005 0
0.0333333 -0.005 0
0.03 -0.005 0
0.0266667 -0.005 0
0.0233333 -0.005 0
0.02 -0.005 0
0.0166667 -0.005 0
0.0133333 -0.005 0
0.01 -0.005 0
0.00666667 -0.005 0
0.00333333 -0.005 0
0 -0.005 0
0.1 -0.00833333 0
0.0966667 -0.00833333 0
0.0933333 -0.00833333 0
0.09 -0.00833333 0
0.0866667 -0.00833333 0
0.0833333 -0.00833333 0
0.08 -0.00833333 0
0.0766667 -0.00833333 0
0.0733333 -0.00833333 0
0.07 -0.00833333 0
0.0666667 -0.00833333 0
0.0633333 -0.00833333 0
0.06 -0.00833333 0
0.0566667 -0.00833333 0
0.0533333 -0.00833333 0
0.05 -0.00833333 0
0.0466667 -0.00833333 0
0.0433333 -0.00833333 0
0.04 -0.00833333 0
0.0366667 -0.00833333 0
0.0333333 -0.00833333 0
0.03 -0.00833333 0
0.0266667 -0.00833333 0
0.0233333 -0.00833333 0
0.02 -0.00833333 0
0.0166667 -0.00833333 0
0.0133333 -0.00833333 0
0.01 -0.00833333 0
0.00666667 -0.00833333 0
0.00333333 -0.00833333 0
0 -0.00833333 0
0.1 -0.0116667 0
0.0966667 -0.0116667 0
0.0933333 -0.0116667 0
0.09 -0.0116667 0
0.0866667 -0.0116667 0
0.0833333 -0.0116667 0
0.08 -0.0116667 0
0.0766667 -0.0116667 0
0.0733333 -0.0116667 0
0.07 -0.0116667 0
0.0666667 -0.0116667 0
0.0633333 -0.0116667 0
0.06 -0.0116667 0
0.0566667 -0.0116667 0
0.0533333 -0.0116667 0
0.05 -0.0116667 0
0.0466667 -0.0116667 0
0.0433333 -0.0116667 0
0.04 -0.0116667 0
0.0366667 -0.0116667 0
0.0333333 -0.0116667 0
0.03 -0.0116667 0
0.0266667 -0.0116667 0
0.0233333 -0.0116667 0
0.02 -0.0116667 0
0.0166667 -0.0116667 0
0.0133333 -0.0116667 0
0.01 -0.0116667 0
0.00666667 -0.0116667 0
0.00333333 -0.0116667 0
0 -0.0116667 0
0.1 -0.015 0
0.0966667 -0.015 0
0.0933333 -0.015 0
0.09 -0.015 0
0.0866667 -0.015 0
0.0833333 -0.015 0
0.08 -0.015 0
0.0766667 -0.015 0
0.0733333 -0.015 0
0.07 -0.015 0
0.0666667 -0.015 0
0.0633333 -0.015 0
0.06 -0.015 0
0.0566667 -0.015 0
0.0533333 -0.015 0
0.05 -0.015 0
0.0466667 -0.015 0
0.0433333 -0.015 0
0.04 -0.015 0
0.0366667 -0.015 0
0.0333333 -0.015 0
0.03 -0.015 0
0.0266667 -0.015 0
0.0233333 -0.015 0
0.02 -0.015 0
0.0166667 -0.015 0
0.0133333 -0.015 0
0.01 -0.015 0
0.00666667 -0.015 0
0.00333333 -0.015 0
0 -0.015 0
0.1 -0.0183333 0
0.0966667 -0.0183333 0
0.0933333 -0.0183333 0
0.09 -0.0183333 0
0.0866667 -0.0183333 0
0.0833333 -0.0183333 0
0.08 -0.0183333 0
0.0766667 -0.0183333 0
0.0733333 -0.0183333 0
0.07 -0.0183333 0
0.0666667 -0.0183333 0
0.0633333 -0.0183333 0
0.06 -0.0183333 0
0.0566667 -0.0183333 0
0.0533333 -0.0183333 0
0.05 -0.0183333 0
0.0466667 -0.0183333 0
0.0433333 -0.0183333 0
0.04 -0.0183333 0
0.0366667 -0.0183333 0
0.0333333 -0.0183333 0
0.03 -0.0183333 0
0.0266667 -0.0183333 0
0.0233333 -0.0183333 0
0.02 -0.0183333 0
0.0166667 -0.0183333 0
0.0133333 -0.0183333 0
0.01 -0.0183333 0
0.00666667 -0.0183333 0
0.00333333 -0.0183333 0
0 -0.0183333 0
0.1 -0.0216667 0
0.0966667 -0.0216667 0
0.0933333 -0.0216667 0
0.09 -0.0216667 0
0.0866667 -0.0216667 0
0.0833333 -0.0216667 0
0.08 -0.0216667 0
0.0766667 -0.0216667 0
0.0733333 -0.0216667 0
0.07 -0.0216667 0
0.0666667 -0.0216667 0
0.0633333 -0.0216667 0
0.06 -0.0216667 0
0.0566667 -0.0216667 0
0.0533333 -0.0216667 0
0.05 -0.0216667 0
0.0466667 -0.0216667 0
0.0433333 -0.0216667 0
0.04 -0.0216667 0
0.0366667 -0.0216667 0
0.0333333 -0.0216667 0
0.03 -0.0216667 0
0.0266667 -0.0216667 0
0.0233333 -0.0216667 0
0.02 -0.0216667 0
0.0166667 -0.0216667 0
0.0133333 -0.0216667 0
0.01 -0.0216667 0
0.00666667 -0.0216667 0
0.00333333 -0.0216667 0
0 -0.0216667 0
0.1 -0.025 0
0.0966667 -0.025 0
0.0933333 -0.025 0
0.09 -0.025 0
0.0866667 -0.025 0
0.0833333 -0.025 0
0.08 -0.025 0
0.0766667 -0.025 0
0.0733333 -0.025 0
0.07 -0.025 0
0.0666667 -0.025 0
0.0633333 -0.025 0
0.06 -0.025 0
0.0566667 -0.025 0
0.0533333 -0.025 0
0.05 -0.025 0
0.0466667 -0.025 0
0.0433333 -0.025 0
0.04 -0.025 0
0.0366667 -0.025 0
0.0333333 -0.025 0
0.03 -0.025 0
0.0266667 -0.025 0
0.0233333 -0.025 0
0.02 -0.025 0
0.0166667 -0.025 0
0.0133333 -0.025 0
0.01 -0.025 0
0.00666667 -0.025 0
0.00333333 -0.025 0
0 -0.025 0
0.1 -0.0283333 0
0.0966667 -0.0283333 0
0.0933333 -0.0283333 0
0.09 -0.0283333 0
0.0866667 -0.0283333 0
0.0833333 -0.0283333 0
0.08 -0.0283333 0
0.0766667 -0.0283333 0
0.0733333 -0.0283333 0
0.07 -0.0283333 0
0.0666667 -0.0283333 0
0.0633333 -0.0283333 0
0.06 -0.0283333 0
0.0566667 -0.0283333 0
0.0533333 -0.0283333 0
0.05 -0.0283333 0
0.0466667 -0.0283333 0
0.0433333 -0.0283333 0
0.04 -0.0283333 0
0.0366667 -0.0283333 0
0.0333333 -0.0283333 0
0.03 -0.0283333 0
0.0266667 -0.0283333 0
0.0233333 -0.0283333 0
0.02 -0.0283333 0
0.0166667 -0.0283333 0
0.0133333 -0.0283333 0
0.01 -0.0283333 0
0.00666667 -0.0283333 0
0.00333333 -0.0283333 0
0 -0.0283333 0
0.1 -0.0316667 0
0.0966667 -0.0316667 0
0.0933333 -0.0316667 0
0.09 -0.0316667 0
0.0866667 -0.0316667 0
0.0833333 -0.0316667 0
0.08 -0.0316667 0
0.0766667 -0.0316667 0
0.0733333 -0.0316667 0
0.07 -0.0316667 0
0.0666667 -0.0316667 0
0.0633333 -0.0316667 0
0.06 -0.0316667 0
0.0566667 -0.0316667 0
0.0533333 -0.0316667 0
0.05 -0.0316667 0
0.0466667 -0.0316667 0
0.0433333 -0.0316667 0
0.04 -0.0316667 0
0.0366667 -0.0316667 0
0.0333333 -0.0316667 0
0.03 -0.0316667 0
0.0266667 -0.0316667 0
0.0233333 -0.0316667 0
0.02 -0.0316667 0
0.0166667 -0.0316667 0
0.0133333 -0.0316667 0
0.01 -0.0316667 0
0.00666667 -0.0316667 0
0.00333333 -0.0316667 0
0 -0.0316667 0
0.1 -0.035 0
0.0966667 -0.035 0
0.0933333 -0.035 0
0.09 -0.035 0
0.0866667 -0.035 0
0.0833333 -0.035 0
0.08 -0.035 0
0.0766667 -0.035 0
0.0733333 -0.035 0
0.07 -0.035 0
0.0666667 -0.035 0
0.0633333 -0.035 0
0.06 -0.035 0
0.0566667 -0.035 0
0.0533333 -0.035 0
0.05 -0.035 0
0.0466667 -0.035 0
0.0433333 -0.035 0
0.04 -0.035 0
0.0366667 -0.035 0
0.0333333 -0.035 0
0.03 -0.035 0
0.0266667 -0.035 0
0.0233333 -0.035 0
0.02 -0.035 0
0.0166667 -0.035 0
0.0133333 -0.035 0
0.01 -0.035 0
0.00666667 -0.035 0
0.00333333 -0.035 0
0 -0.035 0
0.1 -0.0383333 0
0.0966667 -0.0383333 0
0.0933333 -0.0383333 0
0.09 -0.0383333 0
0.0866667 -0.0383333 0
0.0833333 -0.0383333 0
0.08 -0.0383333 0
0.0766667 -0.0383333 0
0.0733333 -0.0383333 0
0.07 -0.0383333 0
0.0666667 -0.0383333 0
0.0633333 -0.0383333 0
0.06 -0.0383333 0
0.0566667 -0.0383333 0
0.0533333 -0.0383333 0
0.05 -0.0383333 0
0.0466667 -0.0383333 0
0.0433333 -0.0383333 0
0.04 -0.0383333 0
0.0366667 -0.0383333 0
0.0333333 -0.0383333 0
0.03 -0.0383333 0
0.0266667 -0.0383333 0
0.0233333 -0.0383333 0
0.02 -0.0383333 0
0.0166667 -0.0383333 0
0.0133333 -0.0383333 0
0.01 -0.0383333 0
0.00666667 -0.0383333 0
0.00333333 -0.0383333 0
0 -0.0383333 0
0.1 -0.0416667 0
0.0966667 -0.0416667 0
0.0933333 -0.0416667 0
0.09 -0.0416667 0
0.0866667 -0.0416667 0
0.0833333 -0.0416667 0
0.08 -0.0416667 0
0.0766667 -0.0416667 0
0.0733333 -0.0416667 0
0.07 -0.0416667 0
0.0666667 -0.0416667 0
0.0633333 -0.0416667 0
0.06 -0.0416667 0
0.0566667 -0.0416667 0
0.0533333 -0.0416667 0
0.05 -0.0416667 0
0.0466667 -0.0416667 0
0.0433333 -0.0416667 0
0.04 -0.0416667 0
0.0366667 -0.0416667 0
0.0333333 -0.0416667 0
0.03 -0.0416667 0
0.0266667 -0.0416667 0
0.0233333 -0.0416667 0
0.02 -0.0416667 0
0.0166667 -0.0416667 0
0.0133333 -0.0416667 0
0.01 -0.0416667 0
0.00666667 -0.0416667 0
0.00333333 -0.0416667 0
0 -0.0416667 0
0.1 -0.045 0
0.0966667 -0.045 0
0.0933333 -0.045 0
0.09 -0.045 0
0.0866667 -0.045 0
0.0833333 -0.045 0
0.08 -0.045 0
0.0766667 -0.045 0
0.0733333 -0.045 0
0.07 -0.045 0
0.0666667 -0.045 0
0.0633333 -0.045 0
0.06 -0.045 0
0.0566667 -0.045 0
0.0533333 -0.045 0
0.05 -0.045 0
0.0466667 -0.045 0
0.0433333 -0.045 0
0.04 -0.045 0
0.0366667 -0.045 0
0.0333333 -0.045 0
0.03 -0.045 0
0.0266667 -0.045 0
0.0233333 -0.045 0
0.02 -0.045 0
0.0166667 -0.045 0
0.0133333 -0.045 0
0.01 -0.045 0
0.00666667 -0.045 0
0.00333333 -0.045 0
0 -0.045 0
0.1 -0.0483333 0
0.0966667 -0.0483333 0
0.0933333 -0.0483333 0
0.09 -0.0483333 0
0.0866667 -0.0483333 0
[...]
POINT_DATA 961
SCALARS Temp float 1
LOOKUP_TABLE default
970.320367
961.390246
952.987243
945.129896
937.835548
931.120345
924.999089
919.485327
914.591214
910.327580
906.703830
903.727961
901.406557
899.744741
898.746180
898.413081
898.746180
899.744742
901.406560
903.727966
906.703829
910.327585
914.591223
919.485331
924.999100
931.120347
937.835558
945.129899
952.987255
961.390272
970.320388
961.390259
952.112924
943.383202
935.220355
927.642398
920.666102
914.306847
908.578706
903.494306
899.064899
895.300255
892.208682
889.797020
888.070591
887.033205
886.687155
887.033206
888.070592
889.797023
892.208687
895.300254
899.064904
903.494315
908.578711
914.306858
920.666104
927.642408
935.220359
943.383214
952.112947
961.390273
952.987245
943.383193
934.346039
925.895724
918.050896
910.828919
904.245713
898.315847
893.052391
888.466995
884.569773
881.369326
878.872733
877.085505
876.011586
875.653350
876.011587
877.085506
878.872737
881.369331
884.569772
888.467001
893.052400
898.315851
904.245724
910.828921
918.050906
925.895726
934.346050
943.383214
952.987256
945.129891
935.220338
925.895716
917.176600
909.082232
901.630527
894.837912
888.719419
883.288536
878.557281
874.536090
871.233838
868.657830
866.813751
865.705671
865.336039
865.705672
866.813752
868.657833
871.233843
874.536088
878.557286
883.288545
888.719423
894.837923
901.630528
909.082242
917.176602
925.895726
935.220358
945.129900
937.835551
927.642389
918.050897
909.082241
900.756213
893.091241
886.104223
879.810620
874.224306
869.357643
865.221366
861.824604
859.174870
857.278015
856.138222
855.758011
856.138222
857.278016
859.174874
861.824609
865.221364
869.357648
874.224315
879.810624
886.104234
893.091242
900.756223
909.082242
918.050906
927.642408
937.835559
931.120342
920.666087
910.828914
901.630530
893.091235
885.229929
878.063941
871.609131
865.879726
860.888406
856.646180
853.162412
850.444807
848.499364
847.330376
846.940427
847.330377
848.499365
850.444811
853.162417
856.646178
860.888411
865.879735
871.609135
878.063953
885.229930
893.091245
901.630531
910.828922
920.666106
931.120349
924.999094
914.306840
904.245716
894.837924
886.104226
878.063951
870.734824
864.133065
858.273225
853.168274
848.829471
845.266392
842.486919
840.497187
839.301586
838.902758
839.301586
840.497188
842.486923
845.266398
848.829469
853.168279
858.273235
864.133068
870.734835
878.063951
886.104235
894.837924
904.245724
914.306858
924.999101
919.485328
908.578695
898.315845
888.719426
879.810617
871.609135
864.133058
857.398934
851.421605
846.214299
841.788504
838.153985
835.318783
833.289157
832.069584
831.662760
832.069584
833.289158
835.318787
838.153990
841.788502
846.214305
851.421615
857.398938
864.133070
871.609135
879.810626
888.719426
898.315852
908.578712
919.485334
914.591220
903.494299
893.052395
883.288549
874.224308
865.879736
858.273225
851.421611
845.339996
840.041839
835.538827
831.840897
828.956230
826.891193
825.650342
825.236421
825.650343
826.891194
828.956234
831.840903
835.538825
840.041845
845.340006
851.421615
858.273237
865.879735
874.224317
883.288548
893.052402
903.494317
914.591225
910.327580
899.064886
888.466993
878.557288
869.357639
860.888409
853.168267
846.214299
840.041833
834.664528
830.094247
826.341074
823.413314
821.317428
820.058040
819.637936
820.058041
821.317429
823.413318
826.341080
830.094244
834.664534
840.041842
846.214303
853.168279
860.888409
869.357648
878.557287
888.467000
899.064904
910.327586
906.703826
895.300238
884.569767
874.536093
865.221358
856.646180
848.829460
841.788499
835.538816
830.094242
825.466787
821.666663
818.702277
816.580172
815.305029
814.879669
815.305030
816.580172
818.702281
821.666669
825.466784
830.094247
835.538825
841.788502
848.829472
856.646179
865.221367
874.536091
884.569774
895.300256
906.703832
903.727963
892.208670
881.369325
871.233846
861.824602
853.162417
845.266387
838.153986
831.840892
826.341076
821.666669
817.827988
814.833525
812.689888
811.401808
810.972132
811.401808
812.689889
814.833529
817.827994
821.666667
826.341081
831.840901
838.153989
845.266399
853.162416
861.824611
871.233845
881.369332
892.208688
903.727968
901.406558
889.797007
878.872732
868.657837
859.174868
850.444811
842.486913
835.318783
828.956224
823.413315
818.702282
814.833524
811.815597
809.655165
808.356992
807.923949
808.356992
809.655166
811.815602
814.833530
818.702280
823.413320
828.956234
835.318787
842.486925
850.444811
859.174877
868.657836
878.872739
889.797025
901.406563
899.744740
888.070576
877.085502
866.813757
857.278010
848.499366
840.497178
833.289155
826.891184
821.317426
816.580175
812.689885
809.655162
807.482705
806.177308
805.741855
806.177308
807.482706
809.655166
812.689891
816.580172
821.317432
826.891194
833.289158
840.497190
848.499366
857.278019
866.813755
877.085509
888.070595
899.744745
898.746179
887.033191
876.011583
865.705677
856.138217
847.330379
839.301577
832.069582
825.650334
820.058039
815.305033
811.401805
808.356990
806.177308
804.867569
804.430668
804.867570
806.177309
808.356994
811.401811
815.305031
820.058045
825.650344
832.069586
839.301590
847.330378
856.138226
865.705676
876.011590
887.033209
898.746184
898.413080
886.687141
875.653347
865.336045
855.758007
846.940429
838.902750
831.662759
825.236413
819.637934
814.879673
810.972129
807.923947
805.741855
804.430668
803.993284
804.430669
805.741857
807.923952
810.972135
814.879671
819.637941
825.236423
831.662763
838.902763
846.940429
855.758016
865.336044
875.653354
886.687160
898.413086
898.746179
887.033191
876.011583
865.705677
856.138217
847.330378
839.301577
832.069582
825.650334
820.058039
815.305033
811.401805
808.356990
806.177308
804.867569
804.430668
804.867570
806.177309
808.356994
811.401811
815.305031
820.058045
825.650345
832.069586
839.301590
847.330379
856.138227
865.705676
876.011591
887.033210
898.746185
899.744739
888.070576
877.085502
866.813757
857.278010
848.499366
840.497178
833.289155
826.891184
821.317426
816.580175
812.689885
809.655162
807.482706
806.177308
805.741855
806.177309
807.482707
809.655167
812.689891
816.580173
821.317433
826.891195
833.289159
840.497191
848.499367
857.278020
866.813756
877.085510
888.070596
899.744746
901.406557
889.797007
878.872731
868.657837
859.174868
850.444811
842.486912
835.318783
828.956224
823.413315
818.702283
814.833524
811.815598
809.655165
808.356993
807.923950
808.356993
809.655167
811.815603
814.833531
818.702281
823.413322
828.956235
835.318788
842.486926
850.444812
859.174878
868.657838
878.872740
889.797027
901.406564
903.727962
892.208670
881.369325
871.233846
861.824602
853.162417
845.266387
838.153986
831.840892
826.341076
821.666670
817.827989
814.833525
812.689889
811.401809
810.972133
811.401810
812.689890
814.833530
817.827996
821.666669
826.341083
831.840903
838.153991
845.266401
853.162419
861.824613
871.233847
881.369334
892.208690
903.727970
906.703828
895.300240
884.569769
874.536095
865.221360
856.646182
848.829462
841.788501
835.538818
830.094244
825.466790
821.666666
818.702280
816.580175
815.305033
814.879673
815.305034
816.580177
818.702285
821.666673
825.466789
830.094252
835.538830
841.788507
848.829477
856.646184
865.221372
874.536096
884.569779
895.300261
906.703836
910.327577
899.064883
888.466990
878.557285
869.357636
860.888406
853.168264
846.214296
840.041830
834.664526
830.094244
826.341072
823.413312
821.317426
820.058039
819.637934
820.058040
821.317428
823.413317
826.341079
830.094244
834.664533
840.041842
846.214303
853.168280
860.888410
869.357649
878.557288
888.467002
899.064905
910.327587
914.591221
903.494301
893.052397
883.288551
874.224311
865.879738
858.273228
851.421614
845.340000
840.041843
835.538831
831.840901
828.956234
826.891198
825.650347
825.236426
825.650348
826.891199
828.956240
831.840909
835.538831
840.041851
845.340012
851.421621
858.273244
865.879742
874.224324
883.288555
893.052409
903.494324
914.591232
919.485324
908.578690
898.315841
888.719422
879.810613
871.609131
864.133055
857.398931
851.421602
846.214296
841.788501
838.153982
835.318781
833.289155
832.069582
831.662759
832.069583
833.289157
835.318786
838.153990
841.788501
846.214305
851.421615
857.398938
864.133071
871.609136
879.810628
888.719427
898.315854
908.578714
919.485336
924.999098
914.306844
904.245720
894.837928
886.104230
878.063956
870.734829
864.133071
858.273232
853.168281
848.829478
845.266400
842.486927
840.497195
839.301594
838.902767
839.301595
840.497197
842.486932
845.266407
848.829479
853.168290
858.273245
864.133079
870.734846
878.063962
886.104246
894.837935
904.245735
914.306869
924.999111
931.120340
920.666085
910.828912
901.630528
893.091234
885.229928
878.063940
871.609131
865.879726
860.888406
856.646181
853.162413
850.444808
848.499366
847.330378
846.940429
847.330379
848.499368
850.444814
853.162421
856.646182
860.888415
865.879740
871.609140
878.063958
885.229935
893.091251
901.630537
910.828929
920.666112
931.120355
937.835542
927.642380
918.050888
909.082232
900.756205
893.091234
886.104215
879.810613
874.224299
869.357636
865.221360
861.824598
859.174865
857.278009
856.138217
855.758006
856.138218
857.278012
859.174871
861.824606
865.221361
869.357645
874.224313
879.810622
886.104233
893.091242
900.756223
909.082243
918.050908
927.642410
937.835561
945.129889
935.220337
925.895715
917.176599
909.082232
901.630528
894.837914
888.719422
883.288539
878.557284
874.536094
871.233842
868.657834
866.813756
865.705677
865.336045
865.705678
866.813759
868.657840
871.233850
874.536096
878.557294
883.288553
888.719432
894.837932
901.630538
909.082252
917.176612
925.895737
935.220370
945.129911
952.987234
943.383183
934.346029
925.895715
918.050888
910.828912
904.245706
898.315840
893.052385
888.466990
884.569768
881.369321
878.872728
877.085501
876.011582
875.653346
876.011584
877.085503
878.872734
881.369329
884.569770
888.466999
893.052399
898.315850
904.245725
910.828922
918.050909
925.895730
934.346054
943.383220
952.987262
961.390257
952.112923
943.383203
935.220358
927.642402
920.666107
914.306853
908.578713
903.494314
899.064907
895.300264
892.208691
889.797029
888.070601
887.033216
886.687166
887.033217
888.070603
889.797035
892.208699
895.300266
899.064917
903.494328
908.578724
914.306872
920.666118
927.642423
935.220374
943.383231
952.112967
961.390296
970.320351
961.390233
952.987235
945.129890
937.835543
931.120341
924.999085
919.485325
914.591212
910.327578
906.703829
903.727960
901.406556
899.744740
898.746180
898.413081
898.746181
899.744743
901.406562
903.727968
906.703831
910.327587
914.591225
919.485335
924.999104
931.120351
937.835564
945.129906
952.987264
961.390284
970.320407
