# vtk DataFile Version 2.0
Unstructured Grid Example
ASCII
DATASET UNSTRUCTURED_GRID

POINTS 961 float
0.1 0.005 0
0.0966667 0.005 0
0.0933333 0.005 0
0.09 0.005 0
0.0866667 0.005 0
0.0833333 0.005 0
0.08 0.005 0
0.0766667 0.005 0
0.0733333 0.005 0
0.07 0.005 0
0.0666667 0.005 0
0.0633333 0.005 0
0.06 0.005 0
0.0566667 0.005 0
0.0533333 0.005 0
0.05 0.005 0
0.0466667 0.005 0
0.0433333 0.005 0
0.04 0.005 0
0.0366667 0.005 0
0.0333333 0.005 0
0.03 0.005 0
0.0266667 0.005 0
0.0233333 0.005 0
0.02 0.005 0
0.0166667 0.005 0
0.0133333 0.005 0
0.01 0.005 0
0.00666667 0.005 0
0.00333333 0.005 0
0 0.005 0
0.1 0.00166667 0
0.0966667 0.00166667 0
0.0933333 0.00166667 0
0.09 0.00166667 0
0.0866667 0.00166667 0
0.0833333 0.00166667 0
0.08 0.00166667 0
0.0766667 0.00166667 0
0.0733333 0.00166667 0
0.07 0.00166667 0
0.0666667 0.00166667 0
0.0633333 0.00166667 0
0.06 0.00166667 0
0.0566667 0.00166667 0
0.0533333 0.00166667 0
0.05 0.00166667 0
0.0466667 0.00166667 0
0.0433333 0.00166667 0
0.04 0.00166667 0
0.0366667 0.00166667 0
0.0333333 0.00166667 0
0.03 0.00166667 0
0.0266667 0.00166667 0
0.0233333 0.00166667 0
0.02 0.00166667 0
0.0166667 0.00166667 0
0.0133333 0.00166667 0
0.01 0.00166667 0
0.00666667 0.00166667 0
0.00333333 0.00166667 0
0 0.00166667 0
0.1 -0.00166667 0
0.0966667 -0.00166667 0
0.0933333 -0.00166667 0
0.09 -0.00166667 0
0.0866667 -0.00166667 0
0.0833333 -0.00166667 0
0.08 -0.00166667 0
0.0766667 -0.00166667 0
0.0733333 -0.00166667 0
0.07 -0.00166667 0
0.0666667 -0.00166667 0
0.0633333 -0.00166667 0
0.06 -0.00166667 0
0.0566667 -0.00166667 0
0.0533333 -0.00166667 0
0.05 -0.00166667 0
0.0466667 -0.00166667 0
0.0433333 -0.00166667 0
0.04 -0.00166667 0
0.0366667 -0.00166667 0
0.0333333 -0.00166667 0
0.03 -0.00166667 0
0.0266667 -0.00166667 0
0.0233333 -0.00166667 0
0.02 -0.00166667 0
0.0166667 -0.00166667 0
0.0133333 -0.00166667 0
0.01 -0.00166667 0
0.00666667 -0.00166667 0
0.00333333 -0.00166667 0
0 -0.00166667 0
0.1 -0.005 0
0.0966667 -0.005 0
0.0933333 -0.005 0
0.09 -0.005 0
0.0866667 -0.005 0
0.0833333 -0.005 0
0.08 -0.005 0
0.0766667 -0.005 0
0.0733333 -0.005 0
0.07 -0.005 0
0.0666667 -0.005 0
0.0633333 -0.005 0
0.06 -0.005 0
0.0566667 -0.005 0
0.0533333 -0.005 0
0.05 -0.005 0
0.0466667 -0.005 0
0.0433333 -0.005 0
0.04 -0.005 0
0.0366667 -0.005 0
0.0333333 -0.005 0
0.03 -0.005 0
0.0266667 -0.005 0
0.0233333 -0.005 0
0.02 -0.005 0
0.0166667 -0.005 0
0.0133333 -0.005 0
0.01 -0.005 0
0.00666667 -0.005 0
0.00333333 -0.005 0
0 -0.005 0
0.1 -0.00833333 0
0.0966667 -0.00833333 0
0.0933333 -0.00833333 0
0.09 -0.00833333 0
0.0866667 -0.00833333 0
0.0833333 -0.00833333 0
0.08 -0.00833333 0
0.0766667 -0.00833333 0
0.0733333 -0.00833333 0
0.07 -0.00833333 0
0.0666667 -0.00833333 0
0.0633333 -0.00833333 0
0.06 -0.00833333 0
0.0566667 -0.00833333 0
0.0533333 -0.00833333 0
0.05 -0.00833333 0
0.0466667 -0.00833333 0
0.0433333 -0.00833333 0
0.04 -0.00833333 0
0.0366667 -0.00833333 0
0.0333333 -0.00833333 0
0.03 -0.00833333 0
0.0266667 -0.00833333 0
0.0233333 -0.00833333 0
0.02 -0.00833333 0
0.0166667 -0.00833333 0
0.0133333 -0.00833333 0
0.01 -0.00833333 0
0.00666667 -0.00833333 0
0.00333333 -0.00833333 0
0 -0.00833333 0
0.1 -0.0116667 0
0.0966667 -0.0116667 0
0.0933333 -0.0116667 0
0.09 -0.0116667 0
0.0866667 -0.0116667 0
0.0833333 -0.0116667 0
0.08 -0.0116667 0
0.0766667 -0.0116667 0
0.0733333 -0.0116667 0
0.07 -0.0116667 0
0.0666667 -0.0116667 0
0.0633333 -0.0116667 0
0.06 -0.0116667 0
0.0566667 -0.0116667 0
0.0533333 -0.0116667 0
0.05 -0.0116667 0
0.0466667 -0.0116667 0
0.0433333 -0.0116667 0
0.04 -0.0116667 0
0.0366667 -0.0116667 0
0.0333333 -0.0116667 0
0.03 -0.0116667 0
0.0266667 -0.0116667 0
0.0233333 -0.0116667 0
0.02 -0.0116667 0
0.0166667 -0.0116667 0
0.0133333 -0.0116667 0
0.01 -0.0116667 0
0.00666667 -0.0116667 0
0.00333333 -0.0116667 0
0 -0.0116667 0
0.1 -0.015 0
0.0966667 -0.015 0
0.0933333 -0.015 0
0.09 -0.015 0
0.0866667 -0.015 0
0.0833333 -0.015 0
0.08 -0.015 0
0.0766667 -0.015 0
0.0733333 -0.015 0
0.07 -0.015 0
0.0666667 -0.015 0
0.0633333 -0.015 0
0.06 -0.015 0
0.0566667 -0.015 0
0.0533333 -0.015 0
0.05 -0.015 0
0.0466667 -0.015 0
0.0433333 -0.015 0
0.04 -0.015 0
0.0366667 -0.015 0
0.0333333 -0.015 0
0.03 -0.015 0
0.0266667 -0.015 0
0.0233333 -0.015 0
0.02 -0.015 0
0.0166667 -0.015 0
0.0133333 -0.015 0
0.01 -0.015 0
0.00666667 -0.015 0
0.00333333 -0.015 0
0 -0.015 0
0.1 -0.0183333 0
0.0966667 -0.0183333 0
0.0933333 -0.0183333 0
0.09 -0.0183333 0
0.0866667 -0.0183333 0
0.0833333 -0.0183333 0
0.08 -0.0183333 0
0.0766667 -0.0183333 0
0.0733333 -0.0183333 0
0.07 -0.0183333 0
0.0666667 -0.0183333 0
0.0633333 -0.0183333 0
0.06 -0.0183333 0
0.0566667 -0.0183333 0
0.0533333 -0.0183333 0
0.05 -0.0183333 0
0.0466667 -0.0183333 0
0.0433333 -0.0183333 0
0.04 -0.0183333 0
0.0366667 -0.0183333 0
0.0333333 -0.0183333 0
0.03 -0.0183333 0
0.0266667 -0.0183333 0
0.0233333 -0.0183333 0
0.02 -0.0183333 0
0.0166667 -0.0183333 0
0.0133333 -0.0183333 0
0.01 -0.0183333 0
0.00666667 -0.0183333 0
0.00333333 -0.0183333 0
0 -0.0183333 0
0.1 -0.0216667 0
0.0966667 -0.0216667 0
0.0933333 -0.0216667 0
0.09 -0.0216667 0
0.0866667 -0.0216667 0
0.0833333 -0.0216667 0
0.08 -0.0216667 0
0.0766667 -0.0216667 0
0.0733333 -0.0216667 0
0.07 -0.0216667 0
0.0666667 -0.0216667 0
0.0633333 -0.0216667 0
0.06 -0.0216667 0
0.0566667 -0.0216667 0
0.0533333 -0.0216667 0
0.05 -0.0216667 0
0.0466667 -0.0216667 0
0.0433333 -0.0216667 0
0.04 -0.0216667 0
0.0366667 -0.0216667 0
0.0333333 -0.0216667 0
0.03 -0.0216667 0
0.0266667 -0.0216667 0
0.0233333 -0.0216667 0
0.02 -0.0216667 0
0.0166667 -0.0216667 0
0.0133333 -0.0216667 0
0.01 -0.0216667 0
0.00666667 -0.0216667 0
0.00333333 -0.0216667 0
0 -0.0216667 0
0.1 -0.025 0
0.0966667 -0.025 0
0.0933333 -0.025 0
0.09 -0.025 0
0.0866667 -0.025 0
0.0833333 -0.025 0
0.08 -0.025 0
0.0766667 -0.025 0
0.0733333 -0.025 0
0.07 -0.025 0
0.0666667 -0.025 0
0.0633333 -0.025 0
0.06 -0.025 0
0.0566667 -0.025 0
0.0533333 -0.025 0
0.05 -0.025 0
0.0466667 -0.025 0
0.0433333 -0.025 0
0.04 -0.025 0
0.0366667 -0.025 0
0.0333333 -0.025 0
0.03 -0.025 0
0.0266667 -0.025 0
0.0233333 -0.025 0
0.02 -0.025 0
0.0166667 -0.025 0
0.0133333 -0.025 0
0.01 -0.025 0
0.00666667 -0.025 0
0.00333333 -0.025 0
0 -0.025 0
0.1 -0.0283333 0
0.0966667 -0.0283333 0
0.0933333 -0.0283333 0
0.09 -0.0283333 0
0.0866667 -0.0283333 0
0.0833333 -0.0283333 0
0.08 -0.0283333 0
0.0766667 -0.0283333 0
0.0733333 -0.0283333 0
0.07 -0.0283333 0
0.0666667 -0.0283333 0
0.0633333 -0.0283333 0
0.06 -0.0283333 0
0.0566667 -0.0283333 0
0.0533333 -0.0283333 0
0.05 -0.0283333 0
0.0466667 -0.0283333 0
0.0433333 -0.0283333 0
0.04 -0.0283333 0
0.0366667 -0.0283333 0
0.0333333 -0.0283333 0
0.03 -0.0283333 0
0.0266667 -0.0283333 0
0.0233333 -0.0283333 0
0.02 -0.0283333 0
0.0166667 -0.0283333 0
0.0133333 -0.0283333 0
0.01 -0.0283333 0
0.00666667 -0.0283333 0
0.00333333 -0.0283333 0
0 -0.0283333 0
0.1 -0.0316667 0
0.0966667 -0.0316667 0
0.0933333 -0.0316667 0
0.09 -0.0316667 0
0.0866667 -0.0316667 0
0.0833333 -0.0316667 0
0.08 -0.0316667 0
0.0766667 -0.0316667 0
0.0733333 -0.0316667 0
0.07 -0.0316667 0
0.0666667 -0.0316667 0
0.0633333 -0.0316667 0
0.06 -0.0316667 0
0.0566667 -0.0316667 0
0.0533333 -0.0316667 0
0.05 -0.0316667 0
0.0466667 -0.0316667 0
0.0433333 -0.0316667 0
0.04 -0.0316667 0
0.0366667 -0.0316667 0
0.0333333 -0.0316667 0
0.03 -0.0316667 0
0.0266667 -0.0316667 0
0.0233333 -0.0316667 0
0.02 -0.0316667 0
0.0166667 -0.0316667 0
0.0133333 -0.0316667 0
0.01 -0.0316667 0
0.00666667 -0.0316667 0
0.00333333 -0.0316667 0
0 -0.0316667 0
0.1 -0.035 0
0.0966667 -0.035 0
0.0933333 -0.035 0
0.09 -0.035 0
0.0866667 -0.035 0
0.0833333 -0.035 0
0.08 -0.035 0
0.0766667 -0.035 0
0.0733333 -0.035 0
0.07 -0.035 0
0.0666667 -0.035 0
0.0633333 -0.035 0
0.06 -0.035 0
0.0566667 -0.035 0
0.0533333 -0.035 0
0.05 -0.035 0
0.0466667 -0.035 0
0.0433333 -0.035 0
0.04 -0.035 0
0.0366667 -0.035 0
0.0333333 -0.035 0
0.03 -0.035 0
0.0266667 -0.035 0
0.0233333 -0.035 0
0.02 -0.035 0
0.0166667 -0.035 0
0.0133333 -0.035 0
0.01 -0.035 0
0.00666667 -0.035 0
0.00333333 -0.035 0
0 -0.035 0
0.1 -0.0383333 0
0.0966667 -0.0383333 0
0.0933333 -0.0383333 0
0.09 -0.0383333 0
0.0866667 -0.0383333 0
0.0833333 -0.0383333 0
0.08 -0.0383333 0
0.0766667 -0.0383333 0
0.0733333 -0.0383333 0
0.07 -0.0383333 0
0.0666667 -0.0383333 0
0.0633333 -0.0383333 0
0.06 -0.0383333 0
0.0566667 -0.0383333 0
0.0533333 -0.0383333 0
0.05 -0.0383333 0
0.0466667 -0.0383333 0
0.0433333 -0.0383333 0
0.04 -0.0383333 0
0.0366667 -0.0383333 0
0.0333333 -0.0383333 0
0.03 -0.0383333 0
0.0266667 -0.0383333 0
0.0233333 -0.0383333 0
0.02 -0.0383333 0
0.0166667 -0.0383333 0
0.0133333 -0.0383333 0
0.01 -0.0383333 0
0.00666667 -0.0383333 0
0.00333333 -0.0383333 0
0 -0.0383333 0
0.1 -0.0416667 0
0.0966667 -0.0416667 0
0.0933333 -0.0416667 0
0.09 -0.0416667 0
0.0866667 -0.0416667 0
0.0833333 -0.0416667 0
0.08 -0.0416667 0
0.0766667 -0.0416667 0
0.0733333 -0.0416667 0
0.07 -0.0416667 0
0.0666667 -0.0416667 0
0.0633333 -0.0416667 0
0.06 -0.0416667 0
0.0566667 -0.0416667 0
0.0533333 -0.0416667 0
0.05 -0.0416667 0
0.0466667 -0.0416667 0
0.0433333 -0.0416667 0
0.04 -0.0416667 0
0.0366667 -0.0416667 0
0.0333333 -0.0416667 0
0.03 -0.0416667 0
0.0266667 -0.0416667 0
0.0233333 -0.0416667 0
0.02 -0.0416667 0
0.0166667 -0.0416667 0
0.0133333 -0.0416667 0
0.01 -0.0416667 0
0.00666667 -0.0416667 0
0.00333333 -0.0416667 0
0 -0.0416667 0
0.1 -0.045 0
0.0966667 -0.045 0
0.0933333 -0.045 0
0.09 -0.045 0
0.0866667 -0.045 0
0.0833333 -0.045 0
0.08 -0.045 0
0.0766667 -0.045 0
0.0733333 -0.045 0
0.07 -0.045 0
0.0666667 -0.045 0
0.0633333 -0.045 0
0.06 -0.045 0
0.0566667 -0.045 0
0.0533333 -0.045 0
0.05 -0.045 0
0.0466667 -0.045 0
0.0433333 -0.045 0
0.04 -0.045 0
0.0366667 -0.045 0
0.0333333 -0.045 0
0.03 -0.045 0
0.0266667 -0.045 0
0.0233333 -0.045 0
0.02 -0.045 0
0.0166667 -0.045 0
0.0133333 -0.045 0
0.01 -0.045 0
0.00666667 -0.045 0
0.00333333 -0.045 0
0 -0.045 0
0.1 -0.0483333 0
0.0966667 -0.0483333 0
0.0933333 -0.0483333 0
0.09 -0.0483333 0
0.0866667 -0.0483333 0
[...]
POINT_DATA 961
SCALARS Temp float 1
LOOKUP_TABLE default
1055.343815
1049.719468
1044.427103
1039.478397
1034.884273
1030.654900
1026.799602
1023.326912
1020.244486
1017.559148
1015.276821
1013.402544
1011.940464
1010.893809
1010.264889
1010.055095
1010.264889
1010.893810
1011.940466
1013.402547
1015.276820
1017.559151
1020.244492
1023.326914
1026.799609
1030.654901
1034.884280
1039.478400
1044.427111
1049.719484
1055.343828
1049.719476
1043.876448
1038.378310
1033.237194
1028.464447
1024.070632
1020.065437
1016.457726
1013.255454
1010.465707
1008.094642
1006.147492
1004.628565
1003.541215
1002.887842
1002.669891
1002.887842
1003.541215
1004.628567
1006.147495
1008.094641
1010.465711
1013.255459
1016.457729
1020.065444
1024.070633
1028.464453
1033.237196
1038.378318
1043.876462
1049.719485
1044.427105
1038.378304
1032.686540
1027.364371
1022.423543
1017.874993
1013.728748
1009.993986
1006.678940
1003.790948
1001.336382
999.320659
997.748241
996.622598
995.946216
995.720589
995.946216
996.622599
997.748243
999.320663
1001.336381
1003.790952
1006.678946
1009.993989
1013.728755
1017.874994
1022.423549
1027.364372
1032.686547
1038.378318
1044.427112
1039.478394
1033.237184
1027.364366
1021.872900
1016.774907
1012.081669
1007.803533
1003.949970
1000.529474
997.549616
995.016971
992.937129
991.314693
990.153244
989.455346
989.222542
989.455346
990.153245
991.314695
992.937133
995.016970
997.549620
1000.529480
1003.949973
1007.803541
1012.081670
1016.774913
1021.872902
1027.364372
1033.237196
1039.478400
1034.884275
1028.464441
1022.423544
1016.774912
1011.531014
1006.703456
1002.302881
998.339028
994.820638
991.755497
989.150367
987.011000
985.342130
984.147441
983.429569
983.190102
983.429569
984.147441
985.342132
987.011004
989.150366
991.755500
994.820644
998.339031
1002.302888
1006.703457
1011.531021
1016.774913
1022.423549
1028.464453
1034.884280
1030.654898
1024.070623
1017.874990
1012.081671
1006.703452
1001.752238
997.238943
993.173558
989.565045
986.421392
983.749533
981.555367
979.843749
978.618458
977.882198
977.636598
977.882199
978.618459
979.843752
981.555370
983.749532
986.421395
989.565051
993.173561
997.238951
1001.752238
1006.703458
1012.081671
1017.874995
1024.070634
1030.654903
1026.799605
1020.065433
1013.728750
1007.803541
1002.302883
997.238949
992.622905
988.464968
984.774304
981.559082
978.826396
976.582278
974.831694
973.578508
972.825487
972.574295
972.825487
973.578509
974.831696
976.582282
978.826395
981.559086
984.774310
988.464971
992.622913
997.238950
1002.302888
1007.803541
1013.728755
1020.065444
1026.799609
1023.326912
1016.457719
1009.993985
1003.949975
998.339027
993.173561
988.464964
984.223660
980.458998
977.179310
974.391833
972.102720
970.317036
969.038724
968.270604
968.014376
968.270605
969.038725
970.317039
972.102724
974.391832
977.179314
980.459004
984.223662
988.464972
993.173561
998.339032
1003.949974
1009.993990
1016.457730
1023.326916
1020.244490
1013.255449
1006.678942
1000.529482
994.820640
989.565051
984.774304
980.459002
976.628657
973.291748
970.455638
968.126587
966.309748
965.009133
964.227612
963.966913
964.227612
965.009134
966.309751
968.126591
970.455637
973.291752
976.628663
980.459004
984.774312
989.565051
994.820645
1000.529481
1006.678947
1013.255460
1020.244493
1017.559148
1010.465699
1003.790947
997.549620
991.755494
986.421394
981.559078
977.179310
973.291744
969.904986
967.026508
964.662663
962.818683
961.498638
960.705442
960.440848
960.705442
961.498639
962.818685
964.662667
967.026507
969.904990
973.291750
977.179312
981.559086
986.421394
991.755500
997.549620
1003.790951
1010.465710
1017.559152
1015.276819
1008.094631
1001.336378
995.016973
989.150362
983.749532
978.826389
974.391830
970.455631
967.026505
964.112017
961.718601
959.851552
958.514993
957.711875
957.443971
957.711875
958.514994
959.851555
961.718604
964.112015
967.026508
970.455637
974.391832
978.826397
983.749532
989.150368
995.016972
1001.336382
1008.094643
1015.276822
1013.402545
1006.147484
999.320659
992.937134
987.010999
981.555370
976.582275
972.102721
968.126584
964.662664
961.718605
959.300904
957.414911
956.064792
955.253524
954.982902
955.253524
956.064792
957.414914
959.300908
961.718603
964.662668
968.126590
972.102723
976.582283
981.555370
987.011005
992.937134
999.320663
1006.147495
1013.402548
1011.940464
1004.628557
997.748240
991.314698
985.342128
979.843752
974.831690
970.317037
966.309744
962.818683
959.851556
957.414911
955.514141
954.153442
953.335818
953.063076
953.335818
954.153443
955.514144
957.414915
959.851554
962.818687
966.309751
970.317039
974.831698
979.843751
985.342134
991.314697
997.748244
1004.628568
1011.940468
1010.893808
1003.541206
996.622596
990.153247
984.147437
978.618459
973.578503
969.038723
965.009128
961.498637
958.514996
956.064790
954.153441
952.785169
951.962994
951.688734
951.962994
952.785170
954.153443
956.064793
958.514994
961.498641
965.009134
969.038725
973.578510
978.618459
984.147443
990.153247
996.622601
1003.541217
1010.893812
1010.264888
1002.887833
995.946214
989.455350
983.429566
977.882200
972.825481
968.270603
964.227607
960.705441
957.711877
955.253522
953.335816
951.962994
951.138085
950.862913
951.138085
951.962995
953.335819
955.253526
957.711875
960.705445
964.227613
968.270606
972.825489
977.882200
983.429572
989.455349
995.946218
1002.887844
1010.264892
1010.055094
1002.669881
995.720587
989.222546
983.190099
977.636599
972.574289
968.014375
963.966908
960.440848
957.443973
954.982900
953.063074
951.688734
950.862913
950.587436
950.862913
951.688735
953.063077
954.982904
957.443972
960.440852
963.966915
968.014377
972.574297
977.636599
983.190105
989.222545
995.720592
1002.669893
1010.055098
1010.264888
1002.887833
995.946214
989.455350
983.429566
977.882200
972.825481
968.270603
964.227607
960.705441
957.711877
955.253522
953.335816
951.962994
951.138085
950.862913
951.138085
951.962995
953.335820
955.253526
957.711876
960.705445
964.227613
968.270606
972.825489
977.882200
983.429572
989.455349
995.946219
1002.887845
1010.264892
1010.893808
1003.541205
996.622596
990.153247
984.147437
978.618459
973.578502
969.038723
965.009128
961.498637
958.514996
956.064790
954.153441
952.785169
951.962994
951.688734
951.962995
952.785170
954.153444
956.064794
958.514995
961.498641
965.009135
969.038726
973.578511
978.618460
984.147444
990.153247
996.622601
1003.541218
1010.893812
1011.940464
1004.628556
997.748240
991.314697
985.342128
979.843752
974.831690
970.317037
966.309744
962.818683
959.851556
957.414911
955.514141
954.153443
953.335818
953.063076
953.335819
954.153444
955.514144
957.414916
959.851555
962.818688
966.309751
970.317040
974.831699
979.843752
985.342135
991.314698
997.748246
1004.628569
1011.940469
1013.402545
1006.147484
999.320659
992.937134
987.010999
981.555370
976.582275
972.102721
968.126584
964.662664
961.718605
959.300904
957.414912
956.064792
955.253525
954.982903
955.253525
956.064793
957.414915
959.300909
961.718604
964.662669
968.126591
972.102725
976.582284
981.555371
987.011006
992.937135
999.320665
1006.147497
1013.402550
1015.276820
1008.094632
1001.336379
995.016974
989.150364
983.749534
978.826391
974.391832
970.455633
967.026507
964.112019
961.718603
959.851554
958.514996
957.711877
957.443973
957.711877
958.514997
959.851557
961.718607
964.112018
967.026511
970.455640
974.391835
978.826400
983.749535
989.150371
995.016975
1001.336386
1008.094646
1015.276825
1017.559146
1010.465697
1003.790945
997.549619
991.755493
986.421392
981.559076
977.179308
973.291743
969.904985
967.026507
964.662662
962.818682
961.498637
960.705441
960.440848
960.705441
961.498638
962.818685
964.662667
967.026506
969.904990
973.291750
977.179312
981.559086
986.421394
991.755501
997.549620
1003.790952
1010.465711
1017.559152
1020.244491
1013.255450
1006.678943
1000.529483
994.820641
989.565053
984.774306
980.459003
976.628659
973.291751
970.455641
968.126590
966.309751
965.009136
964.227615
963.966916
964.227616
965.009137
966.309754
968.126594
970.455641
973.291756
976.628667
980.459008
984.774316
989.565056
994.820650
1000.529486
1006.678951
1013.255465
1020.244498
1023.326910
1016.457716
1009.993982
1003.949972
998.339024
993.173558
988.464962
984.223658
980.458996
977.179308
974.391832
972.102719
970.317035
969.038723
968.270603
968.014375
968.270604
969.038724
970.317038
972.102724
974.391832
977.179314
980.459004
984.223663
988.464973
993.173562
998.339033
1003.949975
1009.993991
1016.457731
1023.326917
1026.799607
1020.065435
1013.728753
1007.803544
1002.302885
997.238952
992.622909
988.464972
984.774308
981.559087
978.826401
976.582283
974.831699
973.578513
972.825492
972.574300
972.825493
973.578515
974.831702
976.582288
978.826402
981.559092
984.774317
988.464977
992.622920
997.238956
1002.302895
1007.803548
1013.728762
1020.065451
1026.799616
1030.654897
1024.070621
1017.874988
1012.081670
1006.703451
1001.752237
997.238943
993.173558
989.565045
986.421392
983.749533
981.555368
979.843750
978.618459
977.882200
977.636599
977.882200
978.618461
979.843754
981.555373
983.749534
986.421398
989.565054
993.173564
997.238954
1001.752242
1006.703462
1012.081675
1017.874999
1024.070639
1030.654907
1034.884270
1028.464436
1022.423538
1016.774907
1011.531009
1006.703451
1002.302876
998.339024
994.820633
991.755492
989.150363
987.010997
985.342126
984.147437
983.429565
983.190099
983.429566
984.147438
985.342130
987.011002
989.150364
991.755498
994.820642
998.339030
1002.302888
1006.703457
1011.531021
1016.774914
1022.423550
1028.464454
1034.884281
1039.478393
1033.237183
1027.364365
1021.872900
1016.774907
1012.081670
1007.803535
1003.949972
1000.529476
997.549618
995.016973
992.937132
991.314696
990.153247
989.455349
989.222546
989.455350
990.153249
991.314699
992.937137
995.016975
997.549624
1000.529485
1003.949978
1007.803547
1012.081676
1016.774919
1021.872908
1027.364379
1033.237203
1039.478407
1044.427098
1038.378298
1032.686533
1027.364365
1022.423538
1017.874988
1013.728744
1009.993982
1006.678936
1003.790945
1001.336379
999.320656
997.748238
996.622596
995.946213
995.720587
995.946214
996.622597
997.748242
999.320661
1001.336380
1003.790951
1006.678945
1009.993988
1013.728756
1017.874995
1022.423551
1027.364374
1032.686549
1038.378321
1044.427116
1049.719475
1043.876447
1038.378310
1033.237196
1028.464449
1024.070635
1020.065441
1016.457731
1013.255458
1010.465712
1008.094647
1006.147497
1004.628571
1003.541221
1002.887848
1002.669897
1002.887849
1003.541223
1004.628574
1006.147502
1008.094649
1010.465718
1013.255467
1016.457737
1020.065453
1024.070642
1028.464463
1033.237206
1038.378328
1043.876475
1049.719499
1055.343805
1049.719460
1044.427098
1039.478393
1034.884270
1030.654897
1026.799599
1023.326910
1020.244485
1017.559147
1015.276820
1013.402543
1011.940464
1010.893809
1010.264889
1010.055095
1010.264890
1010.893810
1011.940467
1013.402548
1015.276822
1017.559153
1020.244493
1023.326917
1026.799611
1030.654904
1034.884283
1039.478404
1044.427117
1049.719492
1055.343840
