# vtk DataFile Version 2.0
Unstructured Grid Example
ASCII
DATASET UNSTRUCTURED_GRID

POINTS 961 float
0.1 0.005 0
0.0966667 0.005 0
0.0933333 0.005 0
0.09 0.005 0
0.0866667 0.005 0
0.0833333 0.005 0
0.08 0.005 0
0.0766667 0.005 0
0.0733333 0.005 0
0.07 0.005 0
0.0666667 0.005 0
0.0633333 0.005 0
0.06 0.005 0
0.0566667 0.005 0
0.0533333 0.005 0
0.05 0.005 0
0.0466667 0.005 0
0.0433333 0.005 0
0.04 0.005 0
0.0366667 0.005 0
0.0333333 0.005 0
0.03 0.005 0
0.0266667 0.005 0
0.0233333 0.005 0
0.02 0.005 0
0.0166667 0.005 0
0.0133333 0.005 0
0.01 0.005 0
0.00666667 0.005 0
0.00333333 0.005 0
0 0.005 0
0.1 0.00166667 0
0.0966667 0.00166667 0
0.0933333 0.00166667 0
0.09 0.00166667 0
0.0866667 0.00166667 0
0.0833333 0.00166667 0
0.08 0.00166667 0
0.0766667 0.00166667 0
0.0733333 0.00166667 0
0.07 0.00166667 0
0.0666667 0.00166667 0
0.0633333 0.00166667 0
0.06 0.00166667 0
0.0566667 0.00166667 0
0.0533333 0.00166667 0
0.05 0.00166667 0
0.0466667 0.00166667 0
0.0433333 0.00166667 0
0.04 0.00166667 0
0.0366667 0.00166667 0
0.0333333 0.00166667 0
0.03 0.00166667 0
0.0266667 0.00166667 0
0.0233333 0.00166667 0
0.02 0.00166667 0
0.0166667 0.00166667 0
0.0133333 0.00166667 0
0.01 0.00166667 0
0.00666667 0.00166667 0
0.00333333 0.00166667 0
0 0.00166667 0
0.1 -0.00166667 0
0.0966667 -0.00166667 0
0.0933333 -0.00166667 0
0.09 -0.00166667 0
0.0866667 -0.00166667 0
0.0833333 -0.00166667 0
0.08 -0.00166667 0
0.0766667 -0.00166667 0
0.0733333 -0.00166667 0
0.07 -0.00166667 0
0.0666667 -0.00166667 0
0.0633333 -0.00166667 0
0.06 -0.00166667 0
0.0566667 -0.00166667 0
0.0533333 -0.00166667 0
0.05 -0.00166667 0
0.0466667 -0.00166667 0
0.0433333 -0.00166667 0
0.04 -0.00166667 0
0.0366667 -0.00166667 0
0.0333333 -0.00166667 0
0.03 -0.00166667 0
0.0266667 -0.00166667 0
0.0233333 -0.00166667 0
0.02 -0.00166667 0
0.0166667 -0.00166667 0
0.0133333 -0.00166667 0
0.01 -0.00166667 0
0.00666667 -0.00166667 0
0.00333333 -0.00166667 0
0 -0.00166667 0
0.1 -0.005 0
0.0966667 -0.005 0
0.0933333 -0.005 0
0.09 -0.005 0
0.0866667 -0.005 0
0.0833333 -0.005 0
0.08 -0.005 0
0.0766667 -0.005 0
0.0733333 -0.005 0
0.07 -0.005 0
0.0666667 -0.005 0
0.0633333 -0.005 0
0.06 -0.005 0
0.0566667 -0.005 0
0.0533333 -0.005 0
0.05 -0.005 0
0.0466667 -0.005 0
0.0433333 -0.005 0
0.04 -0.005 0
0.0366667 -0.005 0
0.0333333 -0.005 0
0.03 -0.005 0
0.0266667 -0.005 0
0.0233333 -0.005 0
0.02 -0.005 0
0.0166667 -0.005 0
0.0133333 -0.005 0
0.01 -0.005 0
0.00666667 -0.005 0
0.00333333 -0.005 0
0 -0.005 0
0.1 -0.00833333 0
0.0966667 -0.00833333 0
0.0933333 -0.00833333 0
0.09 -0.00833333 0
0.0866667 -0.00833333 0
0.0833333 -0.00833333 0
0.08 -0.00833333 0
0.0766667 -0.00833333 0
0.0733333 -0.00833333 0
0.07 -0.00833333 0
0.0666667 -0.00833333 0
0.0633333 -0.00833333 0
0.06 -0.00833333 0
0.0566667 -0.00833333 0
0.0533333 -0.00833333 0
0.05 -0.00833333 0
0.0466667 -0.00833333 0
0.0433333 -0.00833333 0
0.04 -0.00833333 0
0.0366667 -0.00833333 0
0.0333333 -0.00833333 0
0.03 -0.00833333 0
0.0266667 -0.00833333 0
0.0233333 -0.00833333 0
0.02 -0.00833333 0
0.0166667 -0.00833333 0
0.0133333 -0.00833333 0
0.01 -0.00833333 0
0.00666667 -0.00833333 0
0.00333333 -0.00833333 0
0 -0.00833333 0
0.1 -0.0116667 0
0.0966667 -0.0116667 0
0.0933333 -0.0116667 0
0.09 -0.0116667 0
0.0866667 -0.0116667 0
0.0833333 -0.0116667 0
0.08 -0.0116667 0
0.0766667 -0.0116667 0
0.0733333 -0.0116667 0
0.07 -0.0116667 0
0.0666667 -0.0116667 0
0.0633333 -0.0116667 0
0.06 -0.0116667 0
0.0566667 -0.0116667 0
0.0533333 -0.0116667 0
0.05 -0.0116667 0
0.0466667 -0.0116667 0
0.0433333 -0.0116667 0
0.04 -0.0116667 0
0.0366667 -0.0116667 0
0.0333333 -0.0116667 0
0.03 -0.0116667 0
0.0266667 -0.0116667 0
0.0233333 -0.0116667 0
0.02 -0.0116667 0
0.0166667 -0.0116667 0
0.0133333 -0.0116667 0
0.01 -0.0116667 0
0.00666667 -0.0116667 0
0.00333333 -0.0116667 0
0 -0.0116667 0
0.1 -0.015 0
0.0966667 -0.015 0
0.0933333 -0.015 0
0.09 -0.015 0
0.0866667 -0.015 0
0.0833333 -0.015 0
0.08 -0.015 0
0.0766667 -0.015 0
0.0733333 -0.015 0
0.07 -0.015 0
0.0666667 -0.015 0
0.0633333 -0.015 0
0.06 -0.015 0
0.0566667 -0.015 0
0.0533333 -0.015 0
0.05 -0.015 0
0.0466667 -0.015 0
0.0433333 -0.015 0
0.04 -0.015 0
0.0366667 -0.015 0
0.0333333 -0.015 0
0.03 -0.015 0
0.0266667 -0.015 0
0.0233333 -0.015 0
0.02 -0.015 0
0.0166667 -0.015 0
0.0133333 -0.015 0
0.01 -0.015 0
0.00666667 -0.015 0
0.00333333 -0.015 0
0 -0.015 0
0.1 -0.0183333 0
0.0966667 -0.0183333 0
0.0933333 -0.0183333 0
0.09 -0.0183333 0
0.0866667 -0.0183333 0
0.0833333 -0.0183333 0
0.08 -0.0183333 0
0.0766667 -0.0183333 0
0.0733333 -0.0183333 0
0.07 -0.0183333 0
0.0666667 -0.0183333 0
0.0633333 -0.0183333 0
0.06 -0.0183333 0
0.0566667 -0.0183333 0
0.0533333 -0.0183333 0
0.05 -0.0183333 0
0.0466667 -0.0183333 0
0.0433333 -0.0183333 0
0.04 -0.0183333 0
0.0366667 -0.0183333 0
0.0333333 -0.0183333 0
0.03 -0.0183333 0
0.0266667 -0.0183333 0
0.0233333 -0.0183333 0
0.02 -0.0183333 0
0.0166667 -0.0183333 0
0.0133333 -0.0183333 0
0.01 -0.0183333 0
0.00666667 -0.0183333 0
0.00333333 -0.0183333 0
0 -0.0183333 0
0.1 -0.0216667 0
0.0966667 -0.0216667 0
0.0933333 -0.0216667 0
0.09 -0.0216667 0
0.0866667 -0.0216667 0
0.0833333 -0.0216667 0
0.08 -0.0216667 0
0.0766667 -0.0216667 0
0.0733333 -0.0216667 0
0.07 -0.0216667 0
0.0666667 -0.0216667 0
0.0633333 -0.0216667 0
0.06 -0.0216667 0
0.0566667 -0.0216667 0
0.0533333 -0.0216667 0
0.05 -0.0216667 0
0.0466667 -0.0216667 0
0.0433333 -0.0216667 0
0.04 -0.0216667 0
0.0366667 -0.0216667 0
0.0333333 -0.0216667 0
0.03 -0.0216667 0
0.0266667 -0.0216667 0
0.0233333 -0.0216667 0
0.02 -0.0216667 0
0.0166667 -0.0216667 0
0.0133333 -0.0216667 0
0.01 -0.0216667 0
0.00666667 -0.0216667 0
0.00333333 -0.0216667 0
0 -0.0216667 0
0.1 -0.025 0
0.0966667 -0.025 0
0.0933333 -0.025 0
0.09 -0.025 0
0.0866667 -0.025 0
0.0833333 -0.025 0
0.08 -0.025 0
0.0766667 -0.025 0
0.0733333 -0.025 0
0.07 -0.025 0
0.0666667 -0.025 0
0.0633333 -0.025 0
0.06 -0.025 0
0.0566667 -0.025 0
0.0533333 -0.025 0
0.05 -0.025 0
0.0466667 -0.025 0
0.0433333 -0.025 0
0.04 -0.025 0
0.0366667 -0.025 0
0.0333333 -0.025 0
0.03 -0.025 0
0.0266667 -0.025 0
0.0233333 -0.025 0
0.02 -0.025 0
0.0166667 -0.025 0
0.0133333 -0.025 0
0.01 -0.025 0
0.00666667 -0.025 0
0.00333333 -0.025 0
0 -0.025 0
0.1 -0.0283333 0
0.0966667 -0.0283333 0
0.0933333 -0.0283333 0
0.09 -0.0283333 0
0.0866667 -0.0283333 0
0.0833333 -0.0283333 0
0.08 -0.0283333 0
0.0766667 -0.0283333 0
0.0733333 -0.0283333 0
0.07 -0.0283333 0
0.0666667 -0.0283333 0
0.0633333 -0.0283333 0
0.06 -0.0283333 0
0.0566667 -0.0283333 0
0.0533333 -0.0283333 0
0.05 -0.0283333 0
0.0466667 -0.0283333 0
0.0433333 -0.0283333 0
0.04 -0.0283333 0
0.0366667 -0.0283333 0
0.0333333 -0.0283333 0
0.03 -0.0283333 0
0.0266667 -0.0283333 0
0.0233333 -0.0283333 0
0.02 -0.0283333 0
0.0166667 -0.0283333 0
0.0133333 -0.0283333 0
0.01 -0.0283333 0
0.00666667 -0.0283333 0
0.00333333 -0.0283333 0
0 -0.0283333 0
0.1 -0.0316667 0
0.0966667 -0.0316667 0
0.0933333 -0.0316667 0
0.09 -0.0316667 0
0.0866667 -0.0316667 0
0.0833333 -0.0316667 0
0.08 -0.0316667 0
0.0766667 -0.0316667 0
0.0733333 -0.0316667 0
0.07 -0.0316667 0
0.0666667 -0.0316667 0
0.0633333 -0.0316667 0
0.06 -0.0316667 0
0.0566667 -0.0316667 0
0.0533333 -0.0316667 0
0.05 -0.0316667 0
0.0466667 -0.0316667 0
0.0433333 -0.0316667 0
0.04 -0.0316667 0
0.0366667 -0.0316667 0
0.0333333 -0.0316667 0
0.03 -0.0316667 0
0.0266667 -0.0316667 0
0.0233333 -0.0316667 0
0.02 -0.0316667 0
0.0166667 -0.0316667 0
0.0133333 -0.0316667 0
0.01 -0.0316667 0
0.00666667 -0.0316667 0
0.00333333 -0.0316667 0
0 -0.0316667 0
0.1 -0.035 0
0.0966667 -0.035 0
0.0933333 -0.035 0
0.09 -0.035 0
0.0866667 -0.035 0
0.0833333 -0.035 0
0.08 -0.035 0
0.0766667 -0.035 0
0.0733333 -0.035 0
0.07 -0.035 0
0.0666667 -0.035 0
0.0633333 -0.035 0
0.06 -0.035 0
0.0566667 -0.035 0
0.0533333 -0.035 0
0.05 -0.035 0
0.0466667 -0.035 0
0.0433333 -0.035 0
0.04 -0.035 0
0.0366667 -0.035 0
0.0333333 -0.035 0
0.03 -0.035 0
0.0266667 -0.035 0
0.0233333 -0.035 0
0.02 -0.035 0
0.0166667 -0.035 0
0.0133333 -0.035 0
0.01 -0.035 0
0.00666667 -0.035 0
0.00333333 -0.035 0
0 -0.035 0
0.1 -0.0383333 0
0.0966667 -0.0383333 0
0.0933333 -0.0383333 0
0.09 -0.0383333 0
0.0866667 -0.0383333 0
0.0833333 -0.0383333 0
0.08 -0.0383333 0
0.0766667 -0.0383333 0
0.0733333 -0.0383333 0
0.07 -0.0383333 0
0.0666667 -0.0383333 0
0.0633333 -0.0383333 0
0.06 -0.0383333 0
0.0566667 -0.0383333 0
0.0533333 -0.0383333 0
0.05 -0.0383333 0
0.0466667 -0.0383333 0
0.0433333 -0.0383333 0
0.04 -0.0383333 0
0.0366667 -0.0383333 0
0.0333333 -0.0383333 0
0.03 -0.0383333 0
0.0266667 -0.0383333 0
0.0233333 -0.0383333 0
0.02 -0.0383333 0
0.0166667 -0.0383333 0
0.0133333 -0.0383333 0
0.01 -0.0383333 0
0.00666667 -0.0383333 0
0.00333333 -0.0383333 0
0 -0.0383333 0
0.1 -0.0416667 0
0.0966667 -0.0416667 0
0.0933333 -0.0416667 0
0.09 -0.0416667 0
0.0866667 -0.0416667 0
0.0833333 -0.0416667 0
0.08 -0.0416667 0
0.0766667 -0.0416667 0
0.0733333 -0.0416667 0
0.07 -0.0416667 0
0.0666667 -0.0416667 0
0.0633333 -0.0416667 0
0.06 -0.0416667 0
0.0566667 -0.0416667 0
0.0533333 -0.0416667 0
0.05 -0.0416667 0
0.0466667 -0.0416667 0
0.0433333 -0.0416667 0
0.04 -0.0416667 0
0.0366667 -0.0416667 0
0.0333333 -0.0416667 0
0.03 -0.0416667 0
0.0266667 -0.0416667 0
0.0233333 -0.0416667 0
0.02 -0.0416667 0
0.0166667 -0.0416667 0
0.0133333 -0.0416667 0
0.01 -0.0416667 0
0.00666667 -0.0416667 0
0.00333333 -0.0416667 0
0 -0.0416667 0
0.1 -0.045 0
0.0966667 -0.045 0
0.0933333 -0.045 0
0.09 -0.045 0
0.0866667 -0.045 0
0.0833333 -0.045 0
0.08 -0.045 0
0.0766667 -0.045 0
0.0733333 -0.045 0
0.07 -0.045 0
0.0666667 -0.045 0
0.0633333 -0.045 0
0.06 -0.045 0
0.0566667 -0.045 0
0.0533333 -0.045 0
0.05 -0.045 0
0.0466667 -0.045 0
0.0433333 -0.045 0
0.04 -0.045 0
0.0366667 -0.045 0
0.0333333 -0.045 0
0.03 -0.045 0
0.0266667 -0.045 0
0.0233333 -0.045 0
0.02 -0.045 0
0.0166667 -0.045 0
0.0133333 -0.045 0
0.01 -0.045 0
0.00666667 -0.045 0
0.00333333 -0.045 0
0 -0.045 0
0.1 -0.0483333 0
0.0966667 -0.0483333 0
0.0933333 -0.0483333 0
0.09 -0.0483333 0
0.0866667 -0.0483333 0
[...]
POINT_DATA 961
SCALARS Temp float 1
LOOKUP_TABLE default
959.670169
950.325962
941.533322
933.311645
925.679078
918.652514
912.247442
906.478036
901.357012
896.895701
893.103945
889.990108
887.561080
885.822220
884.777365
884.428824
884.777366
885.822221
887.561084
889.990114
893.103943
896.895707
901.357020
906.478040
912.247453
918.652516
925.679089
933.311649
941.533335
950.325990
959.670191
950.325977
940.618456
931.483947
922.942605
915.013278
907.713516
901.059410
895.065685
889.745551
885.110782
881.171599
877.936695
875.413224
873.606756
872.521276
872.159183
872.521277
873.606757
875.413228
877.936700
881.171598
885.110788
889.745561
895.065689
901.059422
907.713518
915.013289
922.942608
931.483960
940.618480
950.325991
941.533324
931.483938
922.027742
913.185602
904.977031
897.420197
890.531756
884.326952
878.819462
874.021472
869.943565
866.594738
863.982400
862.112314
860.988607
860.613763
860.988608
862.112315
863.982404
866.594744
869.943563
874.021478
878.819472
884.326957
890.531768
897.420198
904.977042
913.185605
922.027753
931.483960
941.533336
933.311639
922.942587
913.185594
904.062190
895.592508
887.795295
880.687736
874.285561
868.602880
863.652269
859.444646
855.989295
853.293859
851.364287
850.204836
849.818067
850.204836
851.364288
853.293863
855.989300
859.444644
863.652275
868.602890
874.285565
880.687748
887.795296
895.592519
904.062192
913.185604
922.942608
933.311649
925.679081
915.013269
904.977032
895.592518
886.880436
878.860067
871.549092
864.963688
859.118371
854.026074
849.698029
846.143787
843.371208
841.386412
840.193778
839.795940
840.193778
841.386413
843.371212
846.143792
849.698027
854.026079
859.118380
864.963692
871.549104
878.860069
886.880446
895.592519
904.977042
915.013289
925.679089
918.652511
907.713501
897.420191
887.795298
878.860061
870.634255
863.136013
856.381928
850.386886
845.164153
840.725248
837.079966
834.236369
832.200734
830.977550
830.569523
830.977551
832.200735
834.236373
837.079971
840.725246
845.164159
850.386896
856.381932
863.136026
870.634256
878.860071
887.795298
897.420200
907.713520
918.652518
912.247448
901.059403
890.531760
880.687749
871.549095
863.136023
855.467079
848.559232
842.427709
837.086077
832.546117
828.817847
825.909514
823.827536
822.576507
822.159190
822.576507
823.827537
825.909518
828.817853
832.546115
837.086082
842.427719
848.559236
855.467091
863.136024
871.549105
880.687749
890.531768
901.059422
912.247454
906.478036
895.065672
884.326951
874.285569
864.963685
856.381932
848.559226
841.512878
835.258418
829.809686
825.178701
821.375680
818.409035
816.285313
815.009201
814.583516
815.009201
816.285314
818.409039
821.375685
825.178698
829.809692
835.258428
841.512881
848.559238
856.381932
864.963695
874.285568
884.326959
895.065691
906.478042
901.357017
889.745544
878.819466
868.602894
859.118373
850.386896
842.427708
835.258424
828.894844
823.351049
818.639268
814.769896
811.751493
809.590719
808.292342
807.859231
808.292343
809.590720
811.751497
814.769902
818.639265
823.351055
828.894854
835.258428
842.427721
850.386896
859.118383
868.602893
878.819474
889.745563
901.357023
896.895701
885.110769
874.021470
863.652276
854.026070
845.164157
837.086070
829.809686
823.351042
817.724431
812.942262
809.015087
805.951593
803.758541
802.440768
802.001187
802.440768
803.758542
805.951598
809.015093
812.942260
817.724437
823.351052
829.809689
837.086082
845.164156
854.026079
863.652275
874.021478
885.110787
896.895707
893.103941
881.171582
869.943559
859.444649
849.698021
840.725247
832.546105
825.178695
818.639256
812.942257
808.100264
804.123961
801.022144
798.801657
797.467399
797.022319
797.467399
798.801658
801.022148
804.123967
808.100262
812.942263
818.639266
825.178699
832.546117
840.725246
849.698030
859.444647
869.943566
881.171600
893.103946
889.990110
877.936682
866.594738
855.989304
846.143784
837.079971
828.817842
821.375681
814.769891
809.015089
804.123968
800.107321
796.974032
794.731015
793.383219
792.933624
793.383220
794.731016
796.974036
800.107327
804.123966
809.015095
814.769901
821.375684
828.817854
837.079970
846.143794
855.989302
866.594745
877.936701
889.990115
887.561081
875.413211
863.982398
853.293867
843.371205
834.236374
825.909508
818.409035
811.751486
805.951594
801.022150
796.974031
793.816191
791.555600
790.197244
789.744125
790.197244
791.555601
793.816196
796.974037
801.022147
805.951600
811.751497
818.409039
825.909520
834.236373
843.371214
853.293865
863.982405
875.413230
887.561086
885.822219
873.606741
862.112310
851.364293
841.386407
832.200736
823.827527
816.285311
809.590710
803.758539
798.801660
794.731012
791.555597
789.282425
787.916509
787.460868
787.916509
789.282426
791.555602
794.731018
798.801658
803.758545
809.590721
816.285315
823.827540
832.200735
841.386416
851.364291
862.112318
873.606760
885.822225
884.777364
872.521261
860.988604
850.204842
840.193772
830.977553
822.576498
815.009199
808.292334
802.440766
797.467403
793.383216
790.197241
787.916509
786.546050
786.088895
786.546051
787.916510
790.197246
793.383223
797.467400
802.440773
808.292344
815.009203
822.576511
830.977553
840.193782
850.204840
860.988611
872.521280
884.777370
884.428823
872.159168
860.613759
849.818074
839.795935
830.569525
822.159181
814.583515
807.859223
802.001186
797.022323
792.933621
789.744123
787.460869
786.088895
785.631234
786.088896
787.460870
789.744128
792.933627
797.022321
802.001192
807.859234
814.583519
822.159194
830.569525
839.795945
849.818072
860.613767
872.159187
884.428829
884.777364
872.521261
860.988604
850.204842
840.193772
830.977553
822.576498
815.009199
808.292334
802.440766
797.467403
793.383216
790.197241
787.916509
786.546051
786.088895
786.546051
787.916510
790.197246
793.383223
797.467401
802.440773
808.292345
815.009203
822.576511
830.977553
840.193783
850.204841
860.988612
872.521281
884.777370
885.822219
873.606741
862.112310
851.364293
841.386407
832.200736
823.827527
816.285311
809.590711
803.758539
798.801660
794.731012
791.555597
789.282425
787.916509
787.460869
787.916510
789.282426
791.555602
794.731019
798.801659
803.758546
809.590722
816.285316
823.827541
832.200736
841.386417
851.364292
862.112319
873.606761
885.822226
887.561081
875.413211
863.982398
853.293867
843.371205
834.236373
825.909508
818.409035
811.751487
805.951594
801.022150
796.974031
793.816191
791.555600
790.197244
789.744126
790.197245
791.555602
793.816197
796.974038
801.022149
805.951601
811.751498
818.409040
825.909522
834.236375
843.371216
853.293867
863.982407
875.413231
887.561088
889.990109
877.936682
866.594737
855.989303
846.143784
837.079971
828.817842
821.375681
814.769891
809.015089
804.123969
800.107322
796.974032
794.731016
793.383220
792.933625
793.383221
794.731018
796.974038
800.107329
804.123968
809.015097
814.769903
821.375686
828.817856
837.079973
846.143796
855.989304
866.594747
877.936703
889.990118
893.103942
881.171583
869.943560
859.444650
849.698023
840.725249
832.546107
825.178698
818.639259
812.942260
808.100267
804.123965
801.022147
798.801660
797.467403
797.022323
797.467403
798.801662
801.022153
804.123972
808.100267
812.942268
818.639271
825.178704
832.546123
840.725252
849.698035
859.444652
869.943571
881.171605
893.103951
896.895698
885.110766
874.021467
863.652273
854.026067
845.164154
837.086067
829.809683
823.351040
817.724429
812.942260
809.015085
805.951591
803.758539
802.440766
802.001185
802.440767
803.758541
805.951597
809.015093
812.942259
817.724437
823.351052
829.809690
837.086083
845.164157
854.026080
863.652276
874.021479
885.110789
896.895708
901.357019
889.745546
878.819468
868.602896
859.118376
850.386899
842.427711
835.258427
828.894847
823.351053
818.639272
814.769901
811.751497
809.590724
808.292348
807.859237
808.292349
809.590726
811.751503
814.769908
818.639272
823.351062
828.894860
835.258435
842.427728
850.386903
859.118390
868.602900
878.819481
889.745570
901.357030
906.478032
895.065668
884.326946
874.285564
864.963681
856.381928
848.559222
841.512874
835.258414
829.809683
825.178698
821.375677
818.409032
816.285311
815.009198
814.583515
815.009199
816.285313
818.409038
821.375685
825.178698
829.809692
835.258428
841.512882
848.559239
856.381933
864.963696
874.285570
884.326960
895.065693
906.478044
912.247451
901.059407
890.531764
880.687753
871.549100
863.136029
855.467084
848.559238
842.427716
837.086084
832.546124
828.817855
825.909522
823.827545
822.576516
822.159199
822.576517
823.827547
825.909528
828.817863
832.546125
837.086093
842.427730
848.559247
855.467102
863.136035
871.549116
880.687760
890.531779
901.059433
912.247465
918.652509
907.713498
897.420189
887.795296
878.860059
870.634254
863.136013
856.381928
850.386886
845.164153
840.725249
837.079967
834.236370
832.200736
830.977553
830.569525
830.977554
832.200738
834.236376
837.079975
840.725250
845.164163
850.386900
856.381937
863.136031
870.634262
878.860077
887.795305
897.420207
907.713527
918.652525
925.679072
915.013260
904.977023
895.592509
886.880427
878.860059
871.549084
864.963681
859.118363
854.026067
849.698022
846.143780
843.371202
841.386406
840.193772
839.795935
840.193773
841.386409
843.371208
846.143789
849.698024
854.026077
859.118378
864.963691
871.549103
878.860068
886.880446
895.592520
904.977043
915.013290
925.679091
933.311638
922.942586
913.185593
904.062189
895.592509
887.795296
880.687738
874.285564
868.602884
863.652273
859.444650
855.989299
853.293864
851.364292
850.204841
849.818073
850.204842
851.364295
853.293870
855.989307
859.444652
863.652283
868.602898
874.285574
880.687757
887.795306
895.592529
904.062203
913.185616
922.942620
933.311661
941.533314
931.483927
922.027732
913.185593
904.977023
897.420189
890.531748
884.326946
878.819456
874.021466
869.943559
866.594733
863.982395
862.112310
860.988603
860.613759
860.988604
862.112312
863.982401
866.594741
869.943561
874.021476
878.819471
884.326956
890.531768
897.420200
904.977044
913.185608
922.027758
931.483966
941.533342
950.325975
940.618455
931.483948
922.942608
915.013282
907.713521
901.059416
895.065692
889.745559
885.110791
881.171608
877.936704
875.413234
873.606767
872.521287
872.159194
872.521288
873.606769
875.413240
877.936712
881.171610
885.110801
889.745574
895.065703
901.059436
907.713533
915.013304
922.942625
931.483978
940.618501
950.326015
959.670152
950.325949
941.533314
933.311638
925.679073
918.652510
912.247438
906.478033
901.357009
896.895699
893.103943
889.990107
887.561079
885.822220
884.777365
884.428824
884.777366
885.822222
887.561085
889.990115
893.103945
896.895709
901.357023
906.478043
912.247457
918.652521
925.679094
933.311656
941.533344
950.326003
959.670211
