# vtk DataFile Version 2.0
Unstructured Grid Example
ASCII
DATASET UNSTRUCTURED_GRID

POINTS 961 float
0.1 0.005 0
0.0966667 0.005 0
0.0933333 0.005 0
0.09 0.005 0
0.0866667 0.005 0
0.0833333 0.005 0
0.08 0.005 0
0.0766667 0.005 0
0.0733333 0.005 0
0.07 0.005 0
0.0666667 0.005 0
0.0633333 0.005 0
0.06 0.005 0
0.0566667 0.005 0
0.0533333 0.005 0
0.05 0.005 0
0.0466667 0.005 0
0.0433333 0.005 0
0.04 0.005 0
0.0366667 0.005 0
0.0333333 0.005 0
0.03 0.005 0
0.0266667 0.005 0
0.0233333 0.005 0
0.02 0.005 0
0.0166667 0.005 0
0.0133333 0.005 0
0.01 0.005 0
0.00666667 0.005 0
0.00333333 0.005 0
0 0.005 0
0.1 0.00166667 0
0.0966667 0.00166667 0
0.0933333 0.00166667 0
0.09 0.00166667 0
0.0866667 0.00166667 0
0.0833333 0.00166667 0
0.08 0.00166667 0
0.0766667 0.00166667 0
0.0733333 0.00166667 0
0.07 0.00166667 0
0.0666667 0.00166667 0
0.0633333 0.00166667 0
0.06 0.00166667 0
0.0566667 0.00166667 0
0.0533333 0.00166667 0
0.05 0.00166667 0
0.0466667 0.00166667 0
0.0433333 0.00166667 0
0.04 0.00166667 0
0.0366667 0.00166667 0
0.0333333 0.00166667 0
0.03 0.00166667 0
0.0266667 0.00166667 0
0.0233333 0.00166667 0
0.02 0.00166667 0
0.0166667 0.00166667 0
0.0133333 0.00166667 0
0.01 0.00166667 0
0.00666667 0.00166667 0
0.00333333 0.00166667 0
0 0.00166667 0
0.1 -0.00166667 0
0.0966667 -0.00166667 0
0.0933333 -0.00166667 0
0.09 -0.00166667 0
0.0866667 -0.00166667 0
0.0833333 -0.00166667 0
0.08 -0.00166667 0
0.0766667 -0.00166667 0
0.0733333 -0.00166667 0
0.07 -0.00166667 0
0.0666667 -0.00166667 0
0.0633333 -0.00166667 0
0.06 -0.00166667 0
0.0566667 -0.00166667 0
0.0533333 -0.00166667 0
0.05 -0.00166667 0
0.0466667 -0.00166667 0
0.0433333 -0.00166667 0
0.04 -0.00166667 0
0.0366667 -0.00166667 0
0.0333333 -0.00166667 0
0.03 -0.00166667 0
0.0266667 -0.00166667 0
0.0233333 -0.00166667 0
0.02 -0.00166667 0
0.0166667 -0.00166667 0
0.0133333 -0.00166667 0
0.01 -0.00166667 0
0.00666667 -0.00166667 0
0.00333333 -0.00166667 0
0 -0.00166667 0
0.1 -0.005 0
0.0966667 -0.005 0
0.0933333 -0.005 0
0.09 -0.005 0
0.0866667 -0.005 0
0.0833333 -0.005 0
0.08 -0.005 0
0.0766667 -0.005 0
0.0733333 -0.005 0
0.07 -0.005 0
0.0666667 -0.005 0
0.0633333 -0.005 0
0.06 -0.005 0
0.0566667 -0.005 0
0.0533333 -0.005 0
0.05 -0.005 0
0.0466667 -0.005 0
0.0433333 -0.005 0
0.04 -0.005 0
0.0366667 -0.005 0
0.0333333 -0.005 0
0.03 -0.005 0
0.0266667 -0.005 0
0.0233333 -0.005 0
0.02 -0.005 0
0.0166667 -0.005 0
0.0133333 -0.005 0
0.01 -0.005 0
0.00666667 -0.005 0
0.00333333 -0.005 0
0 -0.005 0
0.1 -0.00833333 0
0.0966667 -0.00833333 0
0.0933333 -0.00833333 0
0.09 -0.00833333 0
0.0866667 -0.00833333 0
0.0833333 -0.00833333 0
0.08 -0.00833333 0
0.0766667 -0.00833333 0
0.0733333 -0.00833333 0
0.07 -0.00833333 0
0.0666667 -0.00833333 0
0.0633333 -0.00833333 0
0.06 -0.00833333 0
0.0566667 -0.00833333 0
0.0533333 -0.00833333 0
0.05 -0.00833333 0
0.0466667 -0.00833333 0
0.0433333 -0.00833333 0
0.04 -0.00833333 0
0.0366667 -0.00833333 0
0.0333333 -0.00833333 0
0.03 -0.00833333 0
0.0266667 -0.00833333 0
0.0233333 -0.00833333 0
0.02 -0.00833333 0
0.0166667 -0.00833333 0
0.0133333 -0.00833333 0
0.01 -0.00833333 0
0.00666667 -0.00833333 0
0.00333333 -0.00833333 0
0 -0.00833333 0
0.1 -0.0116667 0
0.0966667 -0.0116667 0
0.0933333 -0.0116667 0
0.09 -0.0116667 0
0.0866667 -0.0116667 0
0.0833333 -0.0116667 0
0.08 -0.0116667 0
0.0766667 -0.0116667 0
0.0733333 -0.0116667 0
0.07 -0.0116667 0
0.0666667 -0.0116667 0
0.0633333 -0.0116667 0
0.06 -0.0116667 0
0.0566667 -0.0116667 0
0.0533333 -0.0116667 0
0.05 -0.0116667 0
0.0466667 -0.0116667 0
0.0433333 -0.0116667 0
0.04 -0.0116667 0
0.0366667 -0.0116667 0
0.0333333 -0.0116667 0
0.03 -0.0116667 0
0.0266667 -0.0116667 0
0.0233333 -0.0116667 0
0.02 -0.0116667 0
0.0166667 -0.0116667 0
0.0133333 -0.0116667 0
0.01 -0.0116667 0
0.00666667 -0.0116667 0
0.00333333 -0.0116667 0
0 -0.0116667 0
0.1 -0.015 0
0.0966667 -0.015 0
0.0933333 -0.015 0
0.09 -0.015 0
0.0866667 -0.015 0
0.0833333 -0.015 0
0.08 -0.015 0
0.0766667 -0.015 0
0.0733333 -0.015 0
0.07 -0.015 0
0.0666667 -0.015 0
0.0633333 -0.015 0
0.06 -0.015 0
0.0566667 -0.015 0
0.0533333 -0.015 0
0.05 -0.015 0
0.0466667 -0.015 0
0.0433333 -0.015 0
0.04 -0.015 0
0.0366667 -0.015 0
0.0333333 -0.015 0
0.03 -0.015 0
0.0266667 -0.015 0
0.0233333 -0.015 0
0.02 -0.015 0
0.0166667 -0.015 0
0.0133333 -0.015 0
0.01 -0.015 0
0.00666667 -0.015 0
0.00333333 -0.015 0
0 -0.015 0
0.1 -0.0183333 0
0.0966667 -0.0183333 0
0.0933333 -0.0183333 0
0.09 -0.0183333 0
0.0866667 -0.0183333 0
0.0833333 -0.0183333 0
0.08 -0.0183333 0
0.0766667 -0.0183333 0
0.0733333 -0.0183333 0
0.07 -0.0183333 0
0.0666667 -0.0183333 0
0.0633333 -0.0183333 0
0.06 -0.0183333 0
0.0566667 -0.0183333 0
0.0533333 -0.0183333 0
0.05 -0.0183333 0
0.0466667 -0.0183333 0
0.0433333 -0.0183333 0
0.04 -0.0183333 0
0.0366667 -0.0183333 0
0.0333333 -0.0183333 0
0.03 -0.0183333 0
0.0266667 -0.0183333 0
0.0233333 -0.0183333 0
0.02 -0.0183333 0
0.0166667 -0.0183333 0
0.0133333 -0.0183333 0
0.01 -0.0183333 0
0.00666667 -0.0183333 0
0.00333333 -0.0183333 0
0 -0.0183333 0
0.1 -0.0216667 0
0.0966667 -0.0216667 0
0.0933333 -0.0216667 0
0.09 -0.0216667 0
0.0866667 -0.0216667 0
0.0833333 -0.0216667 0
0.08 -0.0216667 0
0.0766667 -0.0216667 0
0.0733333 -0.0216667 0
0.07 -0.0216667 0
0.0666667 -0.0216667 0
0.0633333 -0.0216667 0
0.06 -0.0216667 0
0.0566667 -0.0216667 0
0.0533333 -0.0216667 0
0.05 -0.0216667 0
0.0466667 -0.0216667 0
0.0433333 -0.0216667 0
0.04 -0.0216667 0
0.0366667 -0.0216667 0
0.0333333 -0.0216667 0
0.03 -0.0216667 0
0.0266667 -0.0216667 0
0.0233333 -0.0216667 0
0.02 -0.0216667 0
0.0166667 -0.0216667 0
0.0133333 -0.0216667 0
0.01 -0.0216667 0
0.00666667 -0.0216667 0
0.00333333 -0.0216667 0
0 -0.0216667 0
0.1 -0.025 0
0.0966667 -0.025 0
0.0933333 -0.025 0
0.09 -0.025 0
0.0866667 -0.025 0
0.0833333 -0.025 0
0.08 -0.025 0
0.0766667 -0.025 0
0.0733333 -0.025 0
0.07 -0.025 0
0.0666667 -0.025 0
0.0633333 -0.025 0
0.06 -0.025 0
0.0566667 -0.025 0
0.0533333 -0.025 0
0.05 -0.025 0
0.0466667 -0.025 0
0.0433333 -0.025 0
0.04 -0.025 0
0.0366667 -0.025 0
0.0333333 -0.025 0
0.03 -0.025 0
0.0266667 -0.025 0
0.0233333 -0.025 0
0.02 -0.025 0
0.0166667 -0.025 0
0.0133333 -0.025 0
0.01 -0.025 0
0.00666667 -0.025 0
0.00333333 -0.025 0
0 -0.025 0
0.1 -0.0283333 0
0.0966667 -0.0283333 0
0.0933333 -0.0283333 0
0.09 -0.0283333 0
0.0866667 -0.0283333 0
0.0833333 -0.0283333 0
0.08 -0.0283333 0
0.0766667 -0.0283333 0
0.0733333 -0.0283333 0
0.07 -0.0283333 0
0.0666667 -0.0283333 0
0.0633333 -0.0283333 0
0.06 -0.0283333 0
0.0566667 -0.0283333 0
0.0533333 -0.0283333 0
0.05 -0.0283333 0
0.0466667 -0.0283333 0
0.0433333 -0.0283333 0
0.04 -0.0283333 0
0.0366667 -0.0283333 0
0.0333333 -0.0283333 0
0.03 -0.0283333 0
0.0266667 -0.0283333 0
0.0233333 -0.0283333 0
0.02 -0.0283333 0
0.0166667 -0.0283333 0
0.0133333 -0.0283333 0
0.01 -0.0283333 0
0.00666667 -0.0283333 0
0.00333333 -0.0283333 0
0 -0.0283333 0
0.1 -0.0316667 0
0.0966667 -0.0316667 0
0.0933333 -0.0316667 0
0.09 -0.0316667 0
0.0866667 -0.0316667 0
0.0833333 -0.0316667 0
0.08 -0.0316667 0
0.0766667 -0.0316667 0
0.0733333 -0.0316667 0
0.07 -0.0316667 0
0.0666667 -0.0316667 0
0.0633333 -0.0316667 0
0.06 -0.0316667 0
0.0566667 -0.0316667 0
0.0533333 -0.0316667 0
0.05 -0.0316667 0
0.0466667 -0.0316667 0
0.0433333 -0.0316667 0
0.04 -0.0316667 0
0.0366667 -0.0316667 0
0.0333333 -0.0316667 0
0.03 -0.0316667 0
0.0266667 -0.0316667 0
0.0233333 -0.0316667 0
0.02 -0.0316667 0
0.0166667 -0.0316667 0
0.0133333 -0.0316667 0
0.01 -0.0316667 0
0.00666667 -0.0316667 0
0.00333333 -0.0316667 0
0 -0.0316667 0
0.1 -0.035 0
0.0966667 -0.035 0
0.0933333 -0.035 0
0.09 -0.035 0
0.0866667 -0.035 0
0.0833333 -0.035 0
0.08 -0.035 0
0.0766667 -0.035 0
0.0733333 -0.035 0
0.07 -0.035 0
0.0666667 -0.035 0
0.0633333 -0.035 0
0.06 -0.035 0
0.0566667 -0.035 0
0.0533333 -0.035 0
0.05 -0.035 0
0.0466667 -0.035 0
0.0433333 -0.035 0
0.04 -0.035 0
0.0366667 -0.035 0
0.0333333 -0.035 0
0.03 -0.035 0
0.0266667 -0.035 0
0.0233333 -0.035 0
0.02 -0.035 0
0.0166667 -0.035 0
0.0133333 -0.035 0
0.01 -0.035 0
0.00666667 -0.035 0
0.00333333 -0.035 0
0 -0.035 0
0.1 -0.0383333 0
0.0966667 -0.0383333 0
0.0933333 -0.0383333 0
0.09 -0.0383333 0
0.0866667 -0.0383333 0
0.0833333 -0.0383333 0
0.08 -0.0383333 0
0.0766667 -0.0383333 0
0.0733333 -0.0383333 0
0.07 -0.0383333 0
0.0666667 -0.0383333 0
0.0633333 -0.0383333 0
0.06 -0.0383333 0
0.0566667 -0.0383333 0
0.0533333 -0.0383333 0
0.05 -0.0383333 0
0.0466667 -0.0383333 0
0.0433333 -0.0383333 0
0.04 -0.0383333 0
0.0366667 -0.0383333 0
0.0333333 -0.0383333 0
0.03 -0.0383333 0
0.0266667 -0.0383333 0
0.0233333 -0.0383333 0
0.02 -0.0383333 0
0.0166667 -0.0383333 0
0.0133333 -0.0383333 0
0.01 -0.0383333 0
0.00666667 -0.0383333 0
0.00333333 -0.0383333 0
0 -0.0383333 0
0.1 -0.0416667 0
0.0966667 -0.0416667 0
0.0933333 -0.0416667 0
0.09 -0.0416667 0
0.0866667 -0.0416667 0
0.0833333 -0.0416667 0
0.08 -0.0416667 0
0.0766667 -0.0416667 0
0.0733333 -0.0416667 0
0.07 -0.0416667 0
0.0666667 -0.0416667 0
0.0633333 -0.0416667 0
0.06 -0.0416667 0
0.0566667 -0.0416667 0
0.0533333 -0.0416667 0
0.05 -0.0416667 0
0.0466667 -0.0416667 0
0.0433333 -0.0416667 0
0.04 -0.0416667 0
0.0366667 -0.0416667 0
0.0333333 -0.0416667 0
0.03 -0.0416667 0
0.0266667 -0.0416667 0
0.0233333 -0.0416667 0
0.02 -0.0416667 0
0.0166667 -0.0416667 0
0.0133333 -0.0416667 0
0.01 -0.0416667 0
0.00666667 -0.0416667 0
0.00333333 -0.0416667 0
0 -0.0416667 0
0.1 -0.045 0
0.0966667 -0.045 0
0.0933333 -0.045 0
0.09 -0.045 0
0.0866667 -0.045 0
0.0833333 -0.045 0
0.08 -0.045 0
0.0766667 -0.045 0
0.0733333 -0.045 0
0.07 -0.045 0
0.0666667 -0.045 0
0.0633333 -0.045 0
0.06 -0.045 0
0.0566667 -0.045 0
0.0533333 -0.045 0
0.05 -0.045 0
0.0466667 -0.045 0
0.0433333 -0.045 0
0.04 -0.045 0
0.0366667 -0.045 0
0.0333333 -0.045 0
0.03 -0.045 0
0.0266667 -0.045 0
0.0233333 -0.045 0
0.02 -0.045 0
0.0166667 -0.045 0
0.0133333 -0.045 0
0.01 -0.045 0
0.00666667 -0.045 0
0.00333333 -0.045 0
0 -0.045 0
0.1 -0.0483333 0
0.0966667 -0.0483333 0
0.0933333 -0.0483333 0
0.09 -0.0483333 0
0.0866667 -0.0483333 0
[...]
POINT_DATA 961
SCALARS Temp float 1
LOOKUP_TABLE default
1003.123597
995.468887
988.266006
981.530844
975.278267
969.522116
964.275080
959.548773
955.353614
951.698888
948.592660
946.041784
944.051905
942.627416
941.771462
941.485933
941.771462
942.627417
944.051908
946.041788
948.592659
951.698893
955.353621
959.548776
964.275089
969.522118
975.278276
981.530847
988.266017
995.468910
1003.123615
995.468899
987.516565
980.033627
973.036596
966.540914
960.560959
955.109915
950.199845
945.841575
942.044751
938.817750
936.167694
934.100447
932.620573
931.731338
931.434708
931.731339
932.620574
934.100450
936.167698
938.817749
942.044756
945.841583
950.199849
955.109924
960.560961
966.540923
973.036599
980.033638
987.516585
995.468911
988.266008
980.033620
972.287157
965.043713
958.319275
952.128726
946.485714
941.402728
936.890975
932.960439
929.619794
926.876412
924.736364
923.204374
922.283823
921.976747
922.283823
923.204375
924.736367
926.876416
929.619793
932.960444
936.890982
941.402732
946.485724
952.128728
958.319284
965.043716
972.287166
980.033638
988.266018
981.530840
973.036582
965.043707
957.569852
950.631512
944.244044
938.421530
933.176856
928.521586
924.466022
921.019112
918.188464
915.980341
914.399619
913.449786
913.132942
913.449787
914.399620
915.980345
918.188468
921.019110
924.466026
928.521594
933.176860
938.421540
944.244045
950.631521
957.569854
965.043715
973.036599
981.530847
975.278270
966.540907
958.319276
950.631520
943.494605
936.924328
930.935173
925.540398
920.751894
916.580260
913.034699
910.123039
907.851720
906.225758
905.248740
904.922828
905.248741
906.225759
907.851723
910.123043
913.034698
916.580264
920.751902
925.540401
930.935184
936.924329
943.494613
950.631521
958.319284
966.540923
975.278276
969.522114
960.560947
952.128722
944.244047
936.924322
930.185750
924.043186
918.510225
913.599065
909.320577
905.684198
902.697956
900.368459
898.700848
897.698805
897.364545
897.698805
898.700849
900.368462
902.697961
905.684197
909.320581
913.599074
918.510229
924.043196
930.185751
936.924331
944.244047
952.128729
960.560963
969.522120
964.275085
955.109909
946.485717
938.421540
930.935176
924.043194
917.760789
912.101866
907.078899
902.703007
898.983843
895.929617
893.547086
891.841511
890.816655
890.474785
890.816656
891.841512
893.547089
895.929621
898.983841
902.703011
907.078907
912.101869
917.760799
924.043195
930.935184
938.421540
946.485724
955.109924
964.275090
959.548773
950.199835
941.402727
933.176862
925.540395
918.510229
912.101860
906.329475
901.205797
896.742168
892.948434
889.832970
887.402669
885.662897
884.617493
884.268769
884.617494
885.662898
887.402673
889.832975
892.948432
896.742172
901.205805
906.329478
912.101871
918.510229
925.540403
933.176862
941.402733
950.199850
959.548778
955.353619
945.841569
936.890978
928.521597
920.751896
913.599074
907.078899
901.205802
895.992732
891.451225
887.591302
884.421483
881.948780
880.178655
879.115011
878.760202
879.115012
880.178655
881.948784
884.421488
887.591300
891.451230
895.992740
901.205805
907.078909
913.599074
920.751904
928.521596
936.890984
945.841584
955.353623
951.698889
942.044740
932.960438
924.466028
916.580257
909.320580
902.703001
896.742167
891.451219
886.841868
882.924282
879.707110
877.197468
875.400899
874.321366
873.961256
874.321366
875.400899
877.197472
879.707115
882.924280
886.841873
891.451228
896.742170
902.703011
909.320580
916.580264
924.466027
932.960444
942.044755
951.698893
948.592657
938.817735
929.619789
921.019114
913.034693
905.684198
898.983833
892.948430
887.591292
882.924278
878.957684
875.700264
873.159227
871.340183
870.247145
869.882531
870.247146
871.340184
873.159231
875.700269
878.957682
882.924283
887.591301
892.948433
898.983843
905.684197
913.034700
921.019113
929.619795
938.817751
948.592661
946.041785
936.167684
926.876411
918.188471
910.123037
902.697961
895.929612
889.832971
884.421478
879.707111
875.700270
872.409800
869.842980
868.005479
866.901351
866.533037
866.901351
868.005480
869.842984
872.409805
875.700268
879.707116
884.421487
889.832974
895.929622
902.697960
910.123044
918.188470
926.876417
936.167699
946.041789
944.051905
934.100436
924.736362
915.980348
907.851717
900.368463
893.547080
887.402670
881.948775
877.197469
873.159232
869.842980
867.256048
865.404149
864.291370
863.920170
864.291370
865.404150
867.256052
869.842985
873.159230
877.197474
881.948784
887.402673
893.547091
900.368462
907.851725
915.980347
924.736368
934.100452
944.051910
942.627415
932.620561
923.204371
914.399624
906.225753
898.700850
891.841503
885.662896
880.178647
875.400897
871.340186
868.005476
865.404147
863.541941
862.422969
862.049703
862.422969
863.541942
865.404151
868.005481
871.340184
875.400902
880.178656
885.662899
891.841514
898.700850
906.225761
914.399623
923.204377
932.620576
942.627420
941.771460
931.731326
922.283820
913.449791
905.248736
897.698807
890.816648
884.617492
879.115004
874.321364
870.247148
866.901348
864.291368
862.422969
861.300275
860.925768
861.300275
862.422970
864.291372
866.901354
870.247146
874.321370
879.115013
884.617495
890.816659
897.698807
905.248744
913.449790
922.283826
931.731342
941.771465
941.485932
931.434696
921.976744
913.132947
904.922824
897.364547
890.474778
884.268767
878.760196
873.961255
869.882534
866.533035
863.920168
862.049703
860.925768
860.550847
860.925769
862.049704
863.920172
866.533040
869.882532
873.961261
878.760204
884.268771
890.474789
897.364547
904.922832
913.132946
921.976750
931.434712
941.485937
941.771460
931.731326
922.283820
913.449791
905.248736
897.698807
890.816648
884.617492
879.115004
874.321364
870.247148
866.901348
864.291368
862.422969
861.300275
860.925768
861.300275
862.422970
864.291372
866.901354
870.247147
874.321370
879.115013
884.617495
890.816659
897.698807
905.248745
913.449791
922.283827
931.731342
941.771466
942.627415
932.620560
923.204370
914.399624
906.225753
898.700850
891.841503
885.662896
880.178647
875.400897
871.340186
868.005476
865.404147
863.541942
862.422969
862.049703
862.422969
863.541943
865.404151
868.005482
871.340184
875.400903
880.178657
885.662900
891.841515
898.700851
906.225762
914.399624
923.204378
932.620577
942.627421
944.051905
934.100436
924.736362
915.980348
907.851717
900.368462
893.547080
887.402670
881.948775
877.197469
873.159233
869.842980
867.256048
865.404150
864.291370
863.920171
864.291371
865.404151
867.256053
869.842986
873.159231
877.197475
881.948785
887.402674
893.547092
900.368463
907.851727
915.980348
924.736370
934.100453
944.051911
946.041785
936.167683
926.876411
918.188471
910.123037
902.697961
895.929612
889.832971
884.421478
879.707111
875.700270
872.409800
869.842981
868.005480
866.901352
866.533038
866.901352
868.005481
869.842985
872.409806
875.700269
879.707117
884.421488
889.832976
895.929624
902.697962
910.123046
918.188472
926.876419
936.167701
946.041791
948.592658
938.817737
929.619790
921.019116
913.034694
905.684199
898.983835
892.948432
887.591295
882.924281
878.957686
875.700267
873.159230
871.340186
870.247148
869.882534
870.247149
871.340187
873.159235
875.700273
878.957686
882.924287
887.591305
892.948437
898.983848
905.684201
913.034705
921.019117
929.619799
938.817755
948.592665
951.698886
942.044738
932.960435
924.466025
916.580254
909.320577
902.702999
896.742165
891.451217
886.841866
882.924281
879.707108
877.197466
875.400897
874.321364
873.961255
874.321365
875.400899
877.197471
879.707114
882.924280
886.841873
891.451228
896.742171
902.703012
909.320580
916.580265
924.466028
932.960445
942.044757
951.698894
955.353620
945.841571
936.890979
928.521598
920.751898
913.599076
907.078901
901.205805
895.992734
891.451228
887.591306
884.421486
881.948784
880.178659
879.115016
878.760207
879.115016
880.178660
881.948789
884.421493
887.591306
891.451235
895.992745
901.205811
907.078915
913.599080
920.751910
928.521602
936.890990
945.841590
955.353629
959.548770
950.199831
941.402723
933.176859
925.540392
918.510225
912.101857
906.329472
901.205794
896.742165
892.948432
889.832968
887.402667
885.662896
884.617492
884.268767
884.617492
885.662897
887.402672
889.832974
892.948432
896.742172
901.205805
906.329479
912.101871
918.510230
925.540404
933.176863
941.402735
950.199852
959.548780
964.275087
955.109912
946.485720
938.421544
930.935180
924.043199
917.760794
912.101871
907.078904
902.703013
898.983849
895.929623
893.547093
891.841518
890.816662
890.474793
890.816663
891.841520
893.547098
895.929630
898.983850
902.703020
907.078916
912.101878
917.760808
924.043204
930.935193
938.421550
946.485733
955.109934
964.275099
969.522112
960.560945
952.128720
944.244045
936.924321
930.185749
924.043185
918.510225
913.599066
909.320577
905.684199
902.697957
900.368460
898.700850
897.698807
897.364547
897.698808
898.700852
900.368465
902.697964
905.684200
909.320585
913.599077
918.510233
924.043201
930.185756
936.924336
944.244053
952.128735
960.560968
969.522125
975.278262
966.540899
958.319268
950.631512
943.494598
936.924321
930.935167
925.540392
920.751888
916.580254
913.034694
910.123033
907.851715
906.225753
905.248736
904.922824
905.248737
906.225755
907.851720
910.123040
913.034695
916.580262
920.751900
925.540400
930.935183
936.924328
943.494613
950.631521
958.319285
966.540925
975.278278
981.530838
973.036581
965.043706
957.569852
950.631512
944.244045
938.421531
933.176858
928.521588
924.466025
921.019115
918.188468
915.980345
914.399624
913.449791
913.132947
913.449792
914.399626
915.980350
918.188474
921.019117
924.466033
928.521600
933.176867
938.421547
944.244053
950.631529
957.569863
965.043725
973.036609
981.530857
988.265999
980.033611
972.287148
965.043706
958.319268
952.128720
946.485708
941.402723
936.890970
932.960435
929.619789
926.876408
924.736360
923.204370
922.283820
921.976744
922.283820
923.204372
924.736365
926.876415
929.619791
932.960443
936.890982
941.402732
946.485724
952.128729
958.319286
965.043718
972.287170
980.033643
988.266023
995.468897
987.516564
980.033628
973.036599
966.540918
960.560964
955.109920
950.199851
945.841582
942.044758
938.817757
936.167702
934.100455
932.620582
931.731347
931.434718
931.731348
932.620584
934.100460
936.167708
938.817759
942.044766
945.841594
950.199860
955.109936
960.560973
966.540936
973.036613
980.033652
987.516602
995.468930
1003.123583
995.468876
988.265999
981.530839
975.278263
969.522112
964.275077
959.548770
955.353612
951.698887
948.592658
946.041783
944.051904
942.627416
941.771461
941.485933
941.771462
942.627418
944.051909
946.041789
948.592660
951.698895
955.353624
959.548779
964.275093
969.522122
975.278281
981.530853
988.266025
995.468920
1003.123631
