# vtk DataFile Version 2.0
Unstructured Grid Example
ASCII
DATASET UNSTRUCTURED_GRID

POINTS 961 float
0.1 0.005 0
0.0966667 0.005 0
0.0933333 0.005 0
0.09 0.005 0
0.0866667 0.005 0
0.0833333 0.005 0
0.08 0.005 0
0.0766667 0.005 0
0.0733333 0.005 0
0.07 0.005 0
0.0666667 0.005 0
0.0633333 0.005 0
0.06 0.005 0
0.0566667 0.005 0
0.0533333 0.005 0
0.05 0.005 0
0.0466667 0.005 0
0.0433333 0.005 0
0.04 0.005 0
0.0366667 0.005 0
0.0333333 0.005 0
0.03 0.005 0
0.0266667 0.005 0
0.0233333 0.005 0
0.02 0.005 0
0.0166667 0.005 0
0.0133333 0.005 0
0.01 0.005 0
0.00666667 0.005 0
0.00333333 0.005 0
0 0.005 0
0.1 0.00166667 0
0.0966667 0.00166667 0
0.0933333 0.00166667 0
0.09 0.00166667 0
0.0866667 0.00166667 0
0.0833333 0.00166667 0
0.08 0.00166667 0
0.0766667 0.00166667 0
0.0733333 0.00166667 0
0.07 0.00166667 0
0.0666667 0.00166667 0
0.0633333 0.00166667 0
0.06 0.00166667 0
0.0566667 0.00166667 0
0.0533333 0.00166667 0
0.05 0.00166667 0
0.0466667 0.00166667 0
0.0433333 0.00166667 0
0.04 0.00166667 0
0.0366667 0.00166667 0
0.0333333 0.00166667 0
0.03 0.00166667 0
0.0266667 0.00166667 0
0.0233333 0.00166667 0
0.02 0.00166667 0
0.0166667 0.00166667 0
0.0133333 0.00166667 0
0.01 0.00166667 0
0.00666667 0.00166667 0
0.00333333 0.00166667 0
0 0.00166667 0
0.1 -0.00166667 0
0.0966667 -0.00166667 0
0.0933333 -0.00166667 0
0.09 -0.00166667 0
0.0866667 -0.00166667 0
0.0833333 -0.00166667 0
0.08 -0.00166667 0
0.0766667 -0.00166667 0
0.0733333 -0.00166667 0
0.07 -0.00166667 0
0.0666667 -0.00166667 0
0.0633333 -0.00166667 0
0.06 -0.00166667 0
0.0566667 -0.00166667 0
0.0533333 -0.00166667 0
0.05 -0.00166667 0
0.0466667 -0.00166667 0
0.0433333 -0.00166667 0
0.04 -0.00166667 0
0.0366667 -0.00166667 0
0.0333333 -0.00166667 0
0.03 -0.00166667 0
0.0266667 -0.00166667 0
0.0233333 -0.00166667 0
0.02 -0.00166667 0
0.0166667 -0.00166667 0
0.0133333 -0.00166667 0
0.01 -0.00166667 0
0.00666667 -0.00166667 0
0.00333333 -0.00166667 0
0 -0.00166667 0
0.1 -0.005 0
0.0966667 -0.005 0
0.0933333 -0.005 0
0.09 -0.005 0
0.0866667 -0.005 0
0.0833333 -0.005 0
0.08 -0.005 0
0.0766667 -0.005 0
0.0733333 -0.005 0
0.07 -0.005 0
0.0666667 -0.005 0
0.0633333 -0.005 0
0.06 -0.005 0
0.0566667 -0.005 0
0.0533333 -0.005 0
0.05 -0.005 0
0.0466667 -0.005 0
0.0433333 -0.005 0
0.04 -0.005 0
0.0366667 -0.005 0
0.0333333 -0.005 0
0.03 -0.005 0
0.0266667 -0.005 0
0.0233333 -0.005 0
0.02 -0.005 0
0.0166667 -0.005 0
0.0133333 -0.005 0
0.01 -0.005 0
0.00666667 -0.005 0
0.00333333 -0.005 0
0 -0.005 0
0.1 -0.00833333 0
0.0966667 -0.00833333 0
0.0933333 -0.00833333 0
0.09 -0.00833333 0
0.0866667 -0.00833333 0
0.0833333 -0.00833333 0
0.08 -0.00833333 0
0.0766667 -0.00833333 0
0.0733333 -0.00833333 0
0.07 -0.00833333 0
0.0666667 -0.00833333 0
0.0633333 -0.00833333 0
0.06 -0.00833333 0
0.0566667 -0.00833333 0
0.0533333 -0.00833333 0
0.05 -0.00833333 0
0.0466667 -0.00833333 0
0.0433333 -0.00833333 0
0.04 -0.00833333 0
0.0366667 -0.00833333 0
0.0333333 -0.00833333 0
0.03 -0.00833333 0
0.0266667 -0.00833333 0
0.0233333 -0.00833333 0
0.02 -0.00833333 0
0.0166667 -0.00833333 0
0.0133333 -0.00833333 0
0.01 -0.00833333 0
0.00666667 -0.00833333 0
0.00333333 -0.00833333 0
0 -0.00833333 0
0.1 -0.0116667 0
0.0966667 -0.0116667 0
0.0933333 -0.0116667 0
0.09 -0.0116667 0
0.0866667 -0.0116667 0
0.0833333 -0.0116667 0
0.08 -0.0116667 0
0.0766667 -0.0116667 0
0.0733333 -0.0116667 0
0.07 -0.0116667 0
0.0666667 -0.0116667 0
0.0633333 -0.0116667 0
0.06 -0.0116667 0
0.0566667 -0.0116667 0
0.0533333 -0.0116667 0
0.05 -0.0116667 0
0.0466667 -0.0116667 0
0.0433333 -0.0116667 0
0.04 -0.0116667 0
0.0366667 -0.0116667 0
0.0333333 -0.0116667 0
0.03 -0.0116667 0
0.0266667 -0.0116667 0
0.0233333 -0.0116667 0
0.02 -0.0116667 0
0.0166667 -0.0116667 0
0.0133333 -0.0116667 0
0.01 -0.0116667 0
0.00666667 -0.0116667 0
0.00333333 -0.0116667 0
0 -0.0116667 0
0.1 -0.015 0
0.0966667 -0.015 0
0.0933333 -0.015 0
0.09 -0.015 0
0.0866667 -0.015 0
0.0833333 -0.015 0
0.08 -0.015 0
0.0766667 -0.015 0
0.0733333 -0.015 0
0.07 -0.015 0
0.0666667 -0.015 0
0.0633333 -0.015 0
0.06 -0.015 0
0.0566667 -0.015 0
0.0533333 -0.015 0
0.05 -0.015 0
0.0466667 -0.015 0
0.0433333 -0.015 0
0.04 -0.015 0
0.0366667 -0.015 0
0.0333333 -0.015 0
0.03 -0.015 0
0.0266667 -0.015 0
0.0233333 -0.015 0
0.02 -0.015 0
0.0166667 -0.015 0
0.0133333 -0.015 0
0.01 -0.015 0
0.00666667 -0.015 0
0.00333333 -0.015 0
0 -0.015 0
0.1 -0.0183333 0
0.0966667 -0.0183333 0
0.0933333 -0.0183333 0
0.09 -0.0183333 0
0.0866667 -0.0183333 0
0.0833333 -0.0183333 0
0.08 -0.0183333 0
0.0766667 -0.0183333 0
0.0733333 -0.0183333 0
0.07 -0.0183333 0
0.0666667 -0.0183333 0
0.0633333 -0.0183333 0
0.06 -0.0183333 0
0.0566667 -0.0183333 0
0.0533333 -0.0183333 0
0.05 -0.0183333 0
0.0466667 -0.0183333 0
0.0433333 -0.0183333 0
0.04 -0.0183333 0
0.0366667 -0.0183333 0
0.0333333 -0.0183333 0
0.03 -0.0183333 0
0.0266667 -0.0183333 0
0.0233333 -0.0183333 0
0.02 -0.0183333 0
0.0166667 -0.0183333 0
0.0133333 -0.0183333 0
0.01 -0.0183333 0
0.00666667 -0.0183333 0
0.00333333 -0.0183333 0
0 -0.0183333 0
0.1 -0.0216667 0
0.0966667 -0.0216667 0
0.0933333 -0.0216667 0
0.09 -0.0216667 0
0.0866667 -0.0216667 0
0.0833333 -0.0216667 0
0.08 -0.0216667 0
0.0766667 -0.0216667 0
0.0733333 -0.0216667 0
0.07 -0.0216667 0
0.0666667 -0.0216667 0
0.0633333 -0.0216667 0
0.06 -0.0216667 0
0.0566667 -0.0216667 0
0.0533333 -0.0216667 0
0.05 -0.0216667 0
0.0466667 -0.0216667 0
0.0433333 -0.0216667 0
0.04 -0.0216667 0
0.0366667 -0.0216667 0
0.0333333 -0.0216667 0
0.03 -0.0216667 0
0.0266667 -0.0216667 0
0.0233333 -0.0216667 0
0.02 -0.0216667 0
0.0166667 -0.0216667 0
0.0133333 -0.0216667 0
0.01 -0.0216667 0
0.00666667 -0.0216667 0
0.00333333 -0.0216667 0
0 -0.0216667 0
0.1 -0.025 0
0.0966667 -0.025 0
0.0933333 -0.025 0
0.09 -0.025 0
0.0866667 -0.025 0
0.0833333 -0.025 0
0.08 -0.025 0
0.0766667 -0.025 0
0.0733333 -0.025 0
0.07 -0.025 0
0.0666667 -0.025 0
0.0633333 -0.025 0
0.06 -0.025 0
0.0566667 -0.025 0
0.0533333 -0.025 0
0.05 -0.025 0
0.0466667 -0.025 0
0.0433333 -0.025 0
0.04 -0.025 0
0.0366667 -0.025 0
0.0333333 -0.025 0
0.03 -0.025 0
0.0266667 -0.025 0
0.0233333 -0.025 0
0.02 -0.025 0
0.0166667 -0.025 0
0.0133333 -0.025 0
0.01 -0.025 0
0.00666667 -0.025 0
0.00333333 -0.025 0
0 -0.025 0
0.1 -0.0283333 0
0.0966667 -0.0283333 0
0.0933333 -0.0283333 0
0.09 -0.0283333 0
0.0866667 -0.0283333 0
0.0833333 -0.0283333 0
0.08 -0.0283333 0
0.0766667 -0.0283333 0
0.0733333 -0.0283333 0
0.07 -0.0283333 0
0.0666667 -0.0283333 0
0.0633333 -0.0283333 0
0.06 -0.0283333 0
0.0566667 -0.0283333 0
0.0533333 -0.0283333 0
0.05 -0.0283333 0
0.0466667 -0.0283333 0
0.0433333 -0.0283333 0
0.04 -0.0283333 0
0.0366667 -0.0283333 0
0.0333333 -0.0283333 0
0.03 -0.0283333 0
0.0266667 -0.0283333 0
0.0233333 -0.0283333 0
0.02 -0.0283333 0
0.0166667 -0.0283333 0
0.0133333 -0.0283333 0
0.01 -0.0283333 0
0.00666667 -0.0283333 0
0.00333333 -0.0283333 0
0 -0.0283333 0
0.1 -0.0316667 0
0.0966667 -0.0316667 0
0.0933333 -0.0316667 0
0.09 -0.0316667 0
0.0866667 -0.0316667 0
0.0833333 -0.0316667 0
0.08 -0.0316667 0
0.0766667 -0.0316667 0
0.0733333 -0.0316667 0
0.07 -0.0316667 0
0.0666667 -0.0316667 0
0.0633333 -0.0316667 0
0.06 -0.0316667 0
0.0566667 -0.0316667 0
0.0533333 -0.0316667 0
0.05 -0.0316667 0
0.0466667 -0.0316667 0
0.0433333 -0.0316667 0
0.04 -0.0316667 0
0.0366667 -0.0316667 0
0.0333333 -0.0316667 0
0.03 -0.0316667 0
0.0266667 -0.0316667 0
0.0233333 -0.0316667 0
0.02 -0.0316667 0
0.0166667 -0.0316667 0
0.0133333 -0.0316667 0
0.01 -0.0316667 0
0.00666667 -0.0316667 0
0.00333333 -0.0316667 0
0 -0.0316667 0
0.1 -0.035 0
0.0966667 -0.035 0
0.0933333 -0.035 0
0.09 -0.035 0
0.0866667 -0.035 0
0.0833333 -0.035 0
0.08 -0.035 0
0.0766667 -0.035 0
0.0733333 -0.035 0
0.07 -0.035 0
0.0666667 -0.035 0
0.0633333 -0.035 0
0.06 -0.035 0
0.0566667 -0.035 0
0.0533333 -0.035 0
0.05 -0.035 0
0.0466667 -0.035 0
0.0433333 -0.035 0
0.04 -0.035 0
0.0366667 -0.035 0
0.0333333 -0.035 0
0.03 -0.035 0
0.0266667 -0.035 0
0.0233333 -0.035 0
0.02 -0.035 0
0.0166667 -0.035 0
0.0133333 -0.035 0
0.01 -0.035 0
0.00666667 -0.035 0
0.00333333 -0.035 0
0 -0.035 0
0.1 -0.0383333 0
0.0966667 -0.0383333 0
0.0933333 -0.0383333 0
0.09 -0.0383333 0
0.0866667 -0.0383333 0
0.0833333 -0.0383333 0
0.08 -0.0383333 0
0.0766667 -0.0383333 0
0.0733333 -0.0383333 0
0.07 -0.0383333 0
0.0666667 -0.0383333 0
0.0633333 -0.0383333 0
0.06 -0.0383333 0
0.0566667 -0.0383333 0
0.0533333 -0.0383333 0
0.05 -0.0383333 0
0.0466667 -0.0383333 0
0.0433333 -0.0383333 0
0.04 -0.0383333 0
0.0366667 -0.0383333 0
0.0333333 -0.0383333 0
0.03 -0.0383333 0
0.0266667 -0.0383333 0
0.0233333 -0.0383333 0
0.02 -0.0383333 0
0.0166667 -0.0383333 0
0.0133333 -0.0383333 0
0.01 -0.0383333 0
0.00666667 -0.0383333 0
0.00333333 -0.0383333 0
0 -0.0383333 0
0.1 -0.0416667 0
0.0966667 -0.0416667 0
0.0933333 -0.0416667 0
0.09 -0.0416667 0
0.0866667 -0.0416667 0
0.0833333 -0.0416667 0
0.08 -0.0416667 0
0.0766667 -0.0416667 0
0.0733333 -0.0416667 0
0.07 -0.0416667 0
0.0666667 -0.0416667 0
0.0633333 -0.0416667 0
0.06 -0.0416667 0
0.0566667 -0.0416667 0
0.0533333 -0.0416667 0
0.05 -0.0416667 0
0.0466667 -0.0416667 0
0.0433333 -0.0416667 0
0.04 -0.0416667 0
0.0366667 -0.0416667 0
0.0333333 -0.0416667 0
0.03 -0.0416667 0
0.0266667 -0.0416667 0
0.0233333 -0.0416667 0
0.02 -0.0416667 0
0.0166667 -0.0416667 0
0.0133333 -0.0416667 0
0.01 -0.0416667 0
0.00666667 -0.0416667 0
0.00333333 -0.0416667 0
0 -0.0416667 0
0.1 -0.045 0
0.0966667 -0.045 0
0.0933333 -0.045 0
0.09 -0.045 0
0.0866667 -0.045 0
0.0833333 -0.045 0
0.08 -0.045 0
0.0766667 -0.045 0
0.0733333 -0.045 0
0.07 -0.045 0
0.0666667 -0.045 0
0.0633333 -0.045 0
0.06 -0.045 0
0.0566667 -0.045 0
0.0533333 -0.045 0
0.05 -0.045 0
0.0466667 -0.045 0
0.0433333 -0.045 0
0.04 -0.045 0
0.0366667 -0.045 0
0.0333333 -0.045 0
0.03 -0.045 0
0.0266667 -0.045 0
0.0233333 -0.045 0
0.02 -0.045 0
0.0166667 -0.045 0
0.0133333 -0.045 0
0.01 -0.045 0
0.00666667 -0.045 0
0.00333333 -0.045 0
0 -0.045 0
0.1 -0.0483333 0
0.0966667 -0.0483333 0
0.0933333 -0.0483333 0
0.09 -0.0483333 0
0.0866667 -0.0483333 0
[...]
POINT_DATA 961
SCALARS Temp float 1
LOOKUP_TABLE default
922.154905
911.352105
901.187026
891.682093
882.858278
874.735106
867.330472
860.660753
854.740635
849.583208
845.199833
841.600172
838.792175
836.782031
835.574168
835.171251
835.574169
836.782032
838.792179
841.600178
845.199832
849.583214
854.740645
860.660757
867.330485
874.735108
882.858291
891.682097
901.187041
911.352137
922.154930
911.352121
900.129296
889.568988
879.694496
870.527606
862.088600
854.396069
847.467026
841.316731
835.958780
831.404977
827.665358
824.748185
822.659885
821.405060
820.986477
821.405060
822.659886
824.748189
827.665364
831.404975
835.958786
841.316742
847.467031
854.396083
862.088602
870.527619
879.694500
889.569003
900.129324
911.352138
901.187029
889.568978
878.636774
868.414538
858.924824
850.188627
842.225194
835.052136
828.685251
823.138612
818.424442
814.553128
811.533222
809.371381
808.072365
807.639041
808.072365
809.371382
811.533227
814.553134
818.424440
823.138619
828.685261
835.052141
842.225208
850.188629
858.924836
868.414541
878.636787
889.569003
901.187042
891.682086
879.694476
868.414529
857.867133
848.075560
839.061473
830.844731
823.443506
816.874096
811.151024
806.286900
802.292444
799.176478
796.945870
795.605534
795.158427
795.605535
796.945871
799.176482
802.292450
806.286898
811.151031
816.874106
823.443510
830.844745
839.061475
848.075573
857.867135
868.414540
879.694500
891.682097
882.858282
870.527596
858.924825
848.075572
838.003772
828.731709
820.279810
812.666767
805.909346
800.022485
795.019154
790.910379
787.705237
785.410791
784.032095
783.572192
784.032096
785.410792
787.705241
790.910385
795.019151
800.022491
805.909357
812.666772
820.279824
828.731710
838.003783
848.075573
858.924836
870.527619
882.858291
874.735103
862.088582
850.188621
839.061477
828.731701
819.222146
810.553762
802.745721
795.815217
789.777571
784.646086
780.432070
777.144832
774.791617
773.377608
772.905926
773.377609
774.791619
777.144837
780.432077
784.646084
789.777578
795.815228
802.745726
810.553776
819.222146
828.731712
839.061478
850.188631
862.088604
874.735111
867.330479
854.396061
842.225199
830.844747
820.279814
810.553774
801.688055
793.702265
786.613988
780.438896
775.190593
770.880646
767.518574
765.111788
763.665589
763.183169
763.665590
765.111789
767.518579
770.880652
775.190591
780.438903
786.614000
793.702269
801.688070
810.553774
820.279825
830.844746
842.225208
854.396083
867.330486
860.660753
847.467012
835.052135
823.443514
812.666764
802.745726
793.702257
785.556359
778.325969
772.027071
766.673544
762.277186
758.847708
756.392669
754.917475
754.425382
754.917475
756.392670
758.847713
762.277193
766.673542
772.027078
778.325980
785.556363
793.702272
802.745726
812.666775
823.443513
835.052143
847.467033
860.660760
854.740642
841.316723
828.685255
816.874111
805.909349
795.815229
786.613988
778.325976
770.969444
764.560656
759.113732
754.640675
751.151366
748.653496
747.152566
746.651888
747.152566
748.653497
751.151371
754.640682
759.113729
764.560663
770.969456
778.325980
786.614002
795.815228
805.909360
816.874110
828.685264
841.316744
854.740648
849.583208
835.958765
823.138610
811.151033
800.022481
789.777576
780.438888
772.027071
764.560649
758.056127
752.527837
747.987962
744.446531
741.911348
740.387997
739.879840
740.387997
741.911349
744.446536
747.987969
752.527834
758.056134
764.560660
772.027075
780.438902
789.777575
800.022491
811.151031
823.138618
835.958786
849.583214
845.199829
831.404957
818.424434
806.286904
795.019144
784.646085
775.190579
766.673538
759.113718
752.527831
746.930388
742.333723
738.747992
736.181096
734.638689
734.124176
734.638690
736.181097
738.747997
742.333730
746.930385
752.527838
759.113729
766.673542
775.190594
784.646084
795.019155
806.286902
818.424442
831.404978
845.199835
841.600174
827.665344
814.553127
802.292454
790.910376
780.432077
770.880639
762.277188
754.640669
747.987964
742.333731
737.690431
734.068320
731.475381
729.917326
729.397593
729.917327
731.475383
734.068325
737.690438
742.333728
747.987971
754.640680
762.277192
770.880653
780.432076
790.910387
802.292452
814.553135
827.665365
841.600180
838.792176
824.748170
811.533221
799.176487
787.705233
777.144838
767.518567
758.847709
751.151359
744.446532
738.747999
734.068319
730.417830
727.804576
726.234314
725.710508
726.234314
727.804577
730.417835
734.068326
738.747996
744.446539
751.151371
758.847713
767.518581
777.144837
787.705244
799.176485
811.533229
824.748191
838.792182
836.782030
822.659868
809.371376
796.945877
785.410785
774.791620
765.111778
756.392666
748.653486
741.911346
736.181100
731.475378
727.804573
725.176776
723.597775
723.071055
723.597776
725.176777
727.804578
731.475385
736.181097
741.911352
748.653497
756.392670
765.111793
774.791619
785.410796
796.945875
809.371385
822.659889
836.782036
835.574167
821.405042
808.072361
795.605541
784.032090
773.377611
763.665579
754.917473
747.152556
740.387995
734.638694
729.917323
726.234311
723.597776
722.013524
721.485052
722.013525
723.597777
726.234316
729.917330
734.638691
740.388002
747.152568
754.917477
763.665594
773.377611
784.032100
795.605539
808.072369
821.405064
835.574173
835.171250
820.986460
807.639037
795.158434
783.572187
772.905929
763.183159
754.425380
746.651878
739.879838
734.124181
729.397590
725.710506
723.071056
721.485052
720.955996
721.485053
723.071057
725.710511
729.397597
734.124178
739.879846
746.651890
754.425385
763.183174
772.905928
783.572198
795.158433
807.639046
820.986482
835.171257
835.574167
821.405042
808.072361
795.605541
784.032089
773.377611
763.665579
754.917473
747.152556
740.387995
734.638694
729.917323
726.234311
723.597776
722.013524
721.485052
722.013525
723.597777
726.234317
729.917330
734.638691
740.388003
747.152568
754.917477
763.665595
773.377611
784.032101
795.605540
808.072370
821.405065
835.574174
836.782030
822.659867
809.371376
796.945877
785.410785
774.791620
765.111778
756.392666
748.653486
741.911346
736.181100
731.475378
727.804573
725.176777
723.597776
723.071055
723.597777
725.176778
727.804579
731.475386
736.181098
741.911353
748.653499
756.392671
765.111794
774.791621
785.410797
796.945876
809.371386
822.659891
836.782037
838.792176
824.748169
811.533220
799.176487
787.705233
777.144838
767.518567
758.847709
751.151359
744.446532
738.747999
734.068320
730.417830
727.804577
726.234315
725.710509
726.234315
727.804578
730.417836
734.068328
738.747997
744.446540
751.151372
758.847715
767.518583
777.144839
787.705246
799.176487
811.533231
824.748193
838.792184
841.600173
827.665344
814.553126
802.292454
790.910376
780.432076
770.880639
762.277188
754.640669
747.987965
742.333732
737.690432
734.068321
731.475383
729.917327
729.397594
729.917328
731.475384
734.068327
737.690440
742.333730
747.987973
754.640682
762.277194
770.880656
780.432078
790.910390
802.292455
814.553138
827.665368
841.600182
845.199831
831.404958
818.424436
806.286906
795.019146
784.646088
775.190582
766.673541
759.113721
752.527835
746.930391
742.333727
738.747996
736.181100
734.638694
734.124181
734.638695
736.181102
738.748002
742.333735
746.930390
752.527844
759.113735
766.673548
775.190600
784.646090
795.019161
806.286908
818.424448
831.404984
845.199841
849.583205
835.958761
823.138606
811.151029
800.022477
789.777572
780.438885
772.027068
764.560645
758.056124
752.527834
747.987960
744.446528
741.911346
740.387995
739.879838
740.387996
741.911348
744.446535
747.987968
752.527834
758.056134
764.560660
772.027075
780.438903
789.777576
800.022492
811.151032
823.138620
835.958787
849.583216
854.740644
841.316725
828.685257
816.874113
805.909352
795.815232
786.613991
778.325980
770.969448
764.560661
759.113737
754.640680
751.151372
748.653502
747.152572
746.651894
747.152573
748.653504
751.151378
754.640689
759.113737
764.560671
770.969463
778.325988
786.614010
795.815237
805.909368
816.874118
828.685272
841.316752
854.740656
860.660748
847.467007
835.052129
823.443509
812.666759
802.745721
793.702253
785.556354
778.325965
772.027068
766.673541
762.277183
758.847705
756.392666
754.917472
754.425380
754.917473
756.392668
758.847712
762.277192
766.673541
772.027078
778.325980
785.556364
793.702273
802.745727
812.666776
823.443515
835.052146
847.467036
860.660762
867.330483
854.396066
842.225203
830.844752
820.279819
810.553780
801.688062
793.702272
786.613996
780.438905
775.190602
770.880655
767.518584
765.111798
763.665600
763.183180
763.665601
765.111801
767.518591
770.880664
775.190603
780.438915
786.614012
793.702282
801.688083
810.553787
820.279838
830.844760
842.225221
854.396096
867.330499
874.735100
862.088579
850.188619
839.061475
828.731699
819.222145
810.553762
802.745721
795.815217
789.777572
784.646087
780.432072
777.144834
774.791620
773.377611
772.905928
773.377612
774.791622
777.144841
780.432081
784.646088
789.777583
795.815234
802.745731
810.553783
819.222153
828.731720
839.061485
850.188639
862.088612
874.735119
882.858271
870.527585
858.924815
848.075561
838.003762
828.731699
820.279801
812.666759
805.909338
800.022477
795.019146
790.910372
787.705230
785.410784
784.032089
783.572186
784.032090
785.410787
787.705237
790.910381
795.019147
800.022488
805.909354
812.666770
820.279823
828.731709
838.003784
848.075574
858.924838
870.527621
882.858293
891.682084
879.694474
868.414528
857.867133
848.075561
839.061475
830.844734
823.443509
816.874099
811.151028
806.286905
802.292449
799.176484
796.945876
795.605541
795.158434
795.605542
796.945879
799.176491
802.292458
806.286907
811.151040
816.874116
823.443521
830.844756
839.061486
848.075585
857.867148
868.414554
879.694514
891.682111
901.187017
889.568965
878.636762
868.414527
858.924814
850.188618
842.225186
835.052129
828.685244
823.138606
818.424435
814.553122
811.533217
809.371376
808.072360
807.639037
808.072361
809.371378
811.533224
814.553131
818.424437
823.138617
828.685260
835.052141
842.225209
850.188631
858.924839
868.414545
878.636792
889.569010
901.187050
911.352119
900.129295
889.568989
879.694500
870.527611
862.088606
854.396077
847.467035
841.316740
835.958790
831.404988
827.665370
824.748196
822.659898
821.405072
820.986490
821.405074
822.659900
824.748203
827.665379
831.404990
835.958801
841.316757
847.467047
854.396099
862.088619
870.527637
879.694520
889.569024
900.129348
911.352165
922.154886
911.352089
901.187017
891.682085
882.858272
874.735101
867.330468
860.660749
854.740632
849.583206
845.199832
841.600171
838.792174
836.782031
835.574168
835.171252
835.574169
836.782033
838.792181
841.600180
845.199834
849.583217
854.740649
860.660761
867.330490
874.735114
882.858297
891.682105
901.187052
911.352151
922.154953
