# vtk DataFile Version 2.0
Unstructured Grid Example
ASCII
DATASET UNSTRUCTURED_GRID

POINTS 961 float
0.1 0.005 0
0.0966667 0.005 0
0.0933333 0.005 0
0.09 0.005 0
0.0866667 0.005 0
0.0833333 0.005 0
0.08 0.005 0
0.0766667 0.005 0
0.0733333 0.005 0
0.07 0.005 0
0.0666667 0.005 0
0.0633333 0.005 0
0.06 0.005 0
0.0566667 0.005 0
0.0533333 0.005 0
0.05 0.005 0
0.0466667 0.005 0
0.0433333 0.005 0
0.04 0.005 0
0.0366667 0.005 0
0.0333333 0.005 0
0.03 0.005 0
0.0266667 0.005 0
0.0233333 0.005 0
0.02 0.005 0
0.0166667 0.005 0
0.0133333 0.005 0
0.01 0.005 0
0.00666667 0.005 0
0.00333333 0.005 0
0 0.005 0
0.1 0.00166667 0
0.0966667 0.00166667 0
0.0933333 0.00166667 0
0.09 0.00166667 0
0.0866667 0.00166667 0
0.0833333 0.00166667 0
0.08 0.00166667 0
0.0766667 0.00166667 0
0.0733333 0.00166667 0
0.07 0.00166667 0
0.0666667 0.00166667 0
0.0633333 0.00166667 0
0.06 0.00166667 0
0.0566667 0.00166667 0
0.0533333 0.00166667 0
0.05 0.00166667 0
0.0466667 0.00166667 0
0.0433333 0.00166667 0
0.04 0.00166667 0
0.0366667 0.00166667 0
0.0333333 0.00166667 0
0.03 0.00166667 0
0.0266667 0.00166667 0
0.0233333 0.00166667 0
0.02 0.00166667 0
0.0166667 0.00166667 0
0.0133333 0.00166667 0
0.01 0.00166667 0
0.00666667 0.00166667 0
0.00333333 0.00166667 0
0 0.00166667 0
0.1 -0.00166667 0
0.0966667 -0.00166667 0
0.0933333 -0.00166667 0
0.09 -0.00166667 0
0.0866667 -0.00166667 0
0.0833333 -0.00166667 0
0.08 -0.00166667 0
0.0766667 -0.00166667 0
0.0733333 -0.00166667 0
0.07 -0.00166667 0
0.0666667 -0.00166667 0
0.0633333 -0.00166667 0
0.06 -0.00166667 0
0.0566667 -0.00166667 0
0.0533333 -0.00166667 0
0.05 -0.00166667 0
0.0466667 -0.00166667 0
0.0433333 -0.00166667 0
0.04 -0.00166667 0
0.0366667 -0.00166667 0
0.0333333 -0.00166667 0
0.03 -0.00166667 0
0.0266667 -0.00166667 0
0.0233333 -0.00166667 0
0.02 -0.00166667 0
0.0166667 -0.00166667 0
0.0133333 -0.00166667 0
0.01 -0.00166667 0
0.00666667 -0.00166667 0
0.00333333 -0.00166667 0
0 -0.00166667 0
0.1 -0.005 0
0.0966667 -0.005 0
0.0933333 -0.005 0
0.09 -0.005 0
0.0866667 -0.005 0
0.0833333 -0.005 0
0.08 -0.005 0
0.0766667 -0.005 0
0.0733333 -0.005 0
0.07 -0.005 0
0.0666667 -0.005 0
0.0633333 -0.005 0
0.06 -0.005 0
0.0566667 -0.005 0
0.0533333 -0.005 0
0.05 -0.005 0
0.0466667 -0.005 0
0.0433333 -0.005 0
0.04 -0.005 0
0.0366667 -0.005 0
0.0333333 -0.005 0
0.03 -0.005 0
0.0266667 -0.005 0
0.0233333 -0.005 0
0.02 -0.005 0
0.0166667 -0.005 0
0.0133333 -0.005 0
0.01 -0.005 0
0.00666667 -0.005 0
0.00333333 -0.005 0
0 -0.005 0
0.1 -0.00833333 0
0.0966667 -0.00833333 0
0.0933333 -0.00833333 0
0.09 -0.00833333 0
0.0866667 -0.00833333 0
0.0833333 -0.00833333 0
0.08 -0.00833333 0
0.0766667 -0.00833333 0
0.0733333 -0.00833333 0
0.07 -0.00833333 0
0.0666667 -0.00833333 0
0.0633333 -0.00833333 0
0.06 -0.00833333 0
0.0566667 -0.00833333 0
0.0533333 -0.00833333 0
0.05 -0.00833333 0
0.0466667 -0.00833333 0
0.0433333 -0.00833333 0
0.04 -0.00833333 0
0.0366667 -0.00833333 0
0.0333333 -0.00833333 0
0.03 -0.00833333 0
0.0266667 -0.00833333 0
0.0233333 -0.00833333 0
0.02 -0.00833333 0
0.0166667 -0.00833333 0
0.0133333 -0.00833333 0
0.01 -0.00833333 0
0.00666667 -0.00833333 0
0.00333333 -0.00833333 0
0 -0.00833333 0
0.1 -0.0116667 0
0.0966667 -0.0116667 0
0.0933333 -0.0116667 0
0.09 -0.0116667 0
0.0866667 -0.0116667 0
0.0833333 -0.0116667 0
0.08 -0.0116667 0
0.0766667 -0.0116667 0
0.0733333 -0.0116667 0
0.07 -0.0116667 0
0.0666667 -0.0116667 0
0.0633333 -0.0116667 0
0.06 -0.0116667 0
0.0566667 -0.0116667 0
0.0533333 -0.0116667 0
0.05 -0.0116667 0
0.0466667 -0.0116667 0
0.0433333 -0.0116667 0
0.04 -0.0116667 0
0.0366667 -0.0116667 0
0.0333333 -0.0116667 0
0.03 -0.0116667 0
0.0266667 -0.0116667 0
0.0233333 -0.0116667 0
0.02 -0.0116667 0
0.0166667 -0.0116667 0
0.0133333 -0.0116667 0
0.01 -0.0116667 0
0.00666667 -0.0116667 0
0.00333333 -0.0116667 0
0 -0.0116667 0
0.1 -0.015 0
0.0966667 -0.015 0
0.0933333 -0.015 0
0.09 -0.015 0
0.0866667 -0.015 0
0.0833333 -0.015 0
0.08 -0.015 0
0.0766667 -0.015 0
0.0733333 -0.015 0
0.07 -0.015 0
0.0666667 -0.015 0
0.0633333 -0.015 0
0.06 -0.015 0
0.0566667 -0.015 0
0.0533333 -0.015 0
0.05 -0.015 0
0.0466667 -0.015 0
0.0433333 -0.015 0
0.04 -0.015 0
0.0366667 -0.015 0
0.0333333 -0.015 0
0.03 -0.015 0
0.0266667 -0.015 0
0.0233333 -0.015 0
0.02 -0.015 0
0.0166667 -0.015 0
0.0133333 -0.015 0
0.01 -0.015 0
0.00666667 -0.015 0
0.00333333 -0.015 0
0 -0.015 0
0.1 -0.0183333 0
0.0966667 -0.0183333 0
0.0933333 -0.0183333 0
0.09 -0.0183333 0
0.0866667 -0.0183333 0
0.0833333 -0.0183333 0
0.08 -0.0183333 0
0.0766667 -0.0183333 0
0.0733333 -0.0183333 0
0.07 -0.0183333 0
0.0666667 -0.0183333 0
0.0633333 -0.0183333 0
0.06 -0.0183333 0
0.0566667 -0.0183333 0
0.0533333 -0.0183333 0
0.05 -0.0183333 0
0.0466667 -0.0183333 0
0.0433333 -0.0183333 0
0.04 -0.0183333 0
0.0366667 -0.0183333 0
0.0333333 -0.0183333 0
0.03 -0.0183333 0
0.0266667 -0.0183333 0
0.0233333 -0.0183333 0
0.02 -0.0183333 0
0.0166667 -0.0183333 0
0.0133333 -0.0183333 0
0.01 -0.0183333 0
0.00666667 -0.0183333 0
0.00333333 -0.0183333 0
0 -0.0183333 0
0.1 -0.0216667 0
0.0966667 -0.0216667 0
0.0933333 -0.0216667 0
0.09 -0.0216667 0
0.0866667 -0.0216667 0
0.0833333 -0.0216667 0
0.08 -0.0216667 0
0.0766667 -0.0216667 0
0.0733333 -0.0216667 0
0.07 -0.0216667 0
0.0666667 -0.0216667 0
0.0633333 -0.0216667 0
0.06 -0.0216667 0
0.0566667 -0.0216667 0
0.0533333 -0.0216667 0
0.05 -0.0216667 0
0.0466667 -0.0216667 0
0.0433333 -0.0216667 0
0.04 -0.0216667 0
0.0366667 -0.0216667 0
0.0333333 -0.0216667 0
0.03 -0.0216667 0
0.0266667 -0.0216667 0
0.0233333 -0.0216667 0
0.02 -0.0216667 0
0.0166667 -0.0216667 0
0.0133333 -0.0216667 0
0.01 -0.0216667 0
0.00666667 -0.0216667 0
0.00333333 -0.0216667 0
0 -0.0216667 0
0.1 -0.025 0
0.0966667 -0.025 0
0.0933333 -0.025 0
0.09 -0.025 0
0.0866667 -0.025 0
0.0833333 -0.025 0
0.08 -0.025 0
0.0766667 -0.025 0
0.0733333 -0.025 0
0.07 -0.025 0
0.0666667 -0.025 0
0.0633333 -0.025 0
0.06 -0.025 0
0.0566667 -0.025 0
0.0533333 -0.025 0
0.05 -0.025 0
0.0466667 -0.025 0
0.0433333 -0.025 0
0.04 -0.025 0
0.0366667 -0.025 0
0.0333333 -0.025 0
0.03 -0.025 0
0.0266667 -0.025 0
0.0233333 -0.025 0
0.02 -0.025 0
0.0166667 -0.025 0
0.0133333 -0.025 0
0.01 -0.025 0
0.00666667 -0.025 0
0.00333333 -0.025 0
0 -0.025 0
0.1 -0.0283333 0
0.0966667 -0.0283333 0
0.0933333 -0.0283333 0
0.09 -0.0283333 0
0.0866667 -0.0283333 0
0.0833333 -0.0283333 0
0.08 -0.0283333 0
0.0766667 -0.0283333 0
0.0733333 -0.0283333 0
0.07 -0.0283333 0
0.0666667 -0.0283333 0
0.0633333 -0.0283333 0
0.06 -0.0283333 0
0.0566667 -0.0283333 0
0.0533333 -0.0283333 0
0.05 -0.0283333 0
0.0466667 -0.0283333 0
0.0433333 -0.0283333 0
0.04 -0.0283333 0
0.0366667 -0.0283333 0
0.0333333 -0.0283333 0
0.03 -0.0283333 0
0.0266667 -0.0283333 0
0.0233333 -0.0283333 0
0.02 -0.0283333 0
0.0166667 -0.0283333 0
0.0133333 -0.0283333 0
0.01 -0.0283333 0
0.00666667 -0.0283333 0
0.00333333 -0.0283333 0
0 -0.0283333 0
0.1 -0.0316667 0
0.0966667 -0.0316667 0
0.0933333 -0.0316667 0
0.09 -0.0316667 0
0.0866667 -0.0316667 0
0.0833333 -0.0316667 0
0.08 -0.0316667 0
0.0766667 -0.0316667 0
0.0733333 -0.0316667 0
0.07 -0.0316667 0
0.0666667 -0.0316667 0
0.0633333 -0.0316667 0
0.06 -0.0316667 0
0.0566667 -0.0316667 0
0.0533333 -0.0316667 0
0.05 -0.0316667 0
0.0466667 -0.0316667 0
0.0433333 -0.0316667 0
0.04 -0.0316667 0
0.0366667 -0.0316667 0
0.0333333 -0.0316667 0
0.03 -0.0316667 0
0.0266667 -0.0316667 0
0.0233333 -0.0316667 0
0.02 -0.0316667 0
0.0166667 -0.0316667 0
0.0133333 -0.0316667 0
0.01 -0.0316667 0
0.00666667 -0.0316667 0
0.00333333 -0.0316667 0
0 -0.0316667 0
0.1 -0.035 0
0.0966667 -0.035 0
0.0933333 -0.035 0
0.09 -0.035 0
0.0866667 -0.035 0
0.0833333 -0.035 0
0.08 -0.035 0
0.0766667 -0.035 0
0.0733333 -0.035 0
0.07 -0.035 0
0.0666667 -0.035 0
0.0633333 -0.035 0
0.06 -0.035 0
0.0566667 -0.035 0
0.0533333 -0.035 0
0.05 -0.035 0
0.0466667 -0.035 0
0.0433333 -0.035 0
0.04 -0.035 0
0.0366667 -0.035 0
0.0333333 -0.035 0
0.03 -0.035 0
0.0266667 -0.035 0
0.0233333 -0.035 0
0.02 -0.035 0
0.0166667 -0.035 0
0.0133333 -0.035 0
0.01 -0.035 0
0.00666667 -0.035 0
0.00333333 -0.035 0
0 -0.035 0
0.1 -0.0383333 0
0.0966667 -0.0383333 0
0.0933333 -0.0383333 0
0.09 -0.0383333 0
0.0866667 -0.0383333 0
0.0833333 -0.0383333 0
0.08 -0.0383333 0
0.0766667 -0.0383333 0
0.0733333 -0.0383333 0
0.07 -0.0383333 0
0.0666667 -0.0383333 0
0.0633333 -0.0383333 0
0.06 -0.0383333 0
0.0566667 -0.0383333 0
0.0533333 -0.0383333 0
0.05 -0.0383333 0
0.0466667 -0.0383333 0
0.0433333 -0.0383333 0
0.04 -0.0383333 0
0.0366667 -0.0383333 0
0.0333333 -0.0383333 0
0.03 -0.0383333 0
0.0266667 -0.0383333 0
0.0233333 -0.0383333 0
0.02 -0.0383333 0
0.0166667 -0.0383333 0
0.0133333 -0.0383333 0
0.01 -0.0383333 0
0.00666667 -0.0383333 0
0.00333333 -0.0383333 0
0 -0.0383333 0
0.1 -0.0416667 0
0.0966667 -0.0416667 0
0.0933333 -0.0416667 0
0.09 -0.0416667 0
0.0866667 -0.0416667 0
0.0833333 -0.0416667 0
0.08 -0.0416667 0
0.0766667 -0.0416667 0
0.0733333 -0.0416667 0
0.07 -0.0416667 0
0.0666667 -0.0416667 0
0.0633333 -0.0416667 0
0.06 -0.0416667 0
0.0566667 -0.0416667 0
0.0533333 -0.0416667 0
0.05 -0.0416667 0
0.0466667 -0.0416667 0
0.0433333 -0.0416667 0
0.04 -0.0416667 0
0.0366667 -0.0416667 0
0.0333333 -0.0416667 0
0.03 -0.0416667 0
0.0266667 -0.0416667 0
0.0233333 -0.0416667 0
0.02 -0.0416667 0
0.0166667 -0.0416667 0
0.0133333 -0.0416667 0
0.01 -0.0416667 0
0.00666667 -0.0416667 0
0.00333333 -0.0416667 0
0 -0.0416667 0
0.1 -0.045 0
0.0966667 -0.045 0
0.0933333 -0.045 0
0.09 -0.045 0
0.0866667 -0.045 0
0.0833333 -0.045 0
0.08 -0.045 0
0.0766667 -0.045 0
0.0733333 -0.045 0
0.07 -0.045 0
0.0666667 -0.045 0
0.0633333 -0.045 0
0.06 -0.045 0
0.0566667 -0.045 0
0.0533333 -0.045 0
0.05 -0.045 0
0.0466667 -0.045 0
0.0433333 -0.045 0
0.04 -0.045 0
0.0366667 -0.045 0
0.0333333 -0.045 0
0.03 -0.045 0
0.0266667 -0.045 0
0.0233333 -0.045 0
0.02 -0.045 0
0.0166667 -0.045 0
0.0133333 -0.045 0
0.01 -0.045 0
0.00666667 -0.045 0
0.00333333 -0.045 0
0 -0.045 0
0.1 -0.0483333 0
0.0966667 -0.0483333 0
0.0933333 -0.0483333 0
0.09 -0.0483333 0
0.0866667 -0.0483333 0
[...]
POINT_DATA 961
SCALARS Temp float 1
LOOKUP_TABLE default
901.252927
889.637486
878.707829
868.488061
859.000727
850.266807
842.305530
835.134487
828.769450
823.224472
818.511752
814.641658
811.622721
809.461584
808.162995
807.729815
808.162996
809.461585
811.622726
814.641664
818.511750
823.224479
828.769460
835.134491
842.305545
850.266810
859.000740
868.488065
878.707845
889.637520
901.252953
889.637504
877.570445
866.215831
855.598713
845.742507
836.669008
828.398193
820.948335
814.335823
808.575254
803.679301
799.658735
796.522421
794.277258
792.928179
792.478157
792.928180
794.277259
796.522426
799.658741
803.679299
808.575260
814.335834
820.948340
828.398208
836.669011
845.742520
855.598717
866.215847
877.570474
889.637521
878.707832
866.215820
854.461343
843.470333
833.267031
823.874001
815.311922
807.599711
800.754334
794.790901
789.722533
785.560380
782.313618
779.989389
778.592802
778.126931
778.592802
779.989390
782.313623
785.560386
789.722531
794.790908
800.754345
807.599717
815.311937
823.874004
833.267045
843.470336
854.461357
866.215847
878.707845
868.488054
855.598691
843.470323
832.129706
821.601853
811.910046
803.075621
795.118097
788.054979
781.901860
776.672275
772.377730
769.027694
766.629535
765.188525
764.707836
765.188526
766.629537
769.027699
772.377737
776.672273
781.901867
788.054991
795.118102
803.075636
811.910048
821.601866
832.129708
843.470335
855.598717
868.488065
859.000731
845.742496
833.267033
821.601866
810.772723
800.803552
791.716300
783.531045
776.265792
769.936581
764.557334
760.139886
756.693978
754.227187
752.744937
752.250492
752.744938
754.227189
756.693983
760.139893
764.557331
769.936588
776.265804
783.531050
791.716315
800.803553
810.772736
821.601867
833.267044
845.742520
859.000740
850.266804
836.668989
823.873995
811.910051
800.803544
790.579035
781.259033
772.864131
765.412795
758.921475
753.404451
748.873860
745.339692
742.809721
741.289507
740.782397
741.289507
742.809722
745.339698
748.873867
753.404448
758.921482
765.412807
772.864136
781.259049
790.579036
800.803556
811.910051
823.874006
836.669013
850.266813
842.305538
828.398185
815.311927
803.075638
791.716304
781.259046
771.726885
763.140883
755.519926
748.880838
743.238225
738.604501
734.989882
732.402319
730.847498
730.328845
730.847499
732.402320
734.989887
738.604508
743.238222
748.880845
755.519937
763.140888
771.726900
781.259046
791.716316
803.075637
815.311937
828.398208
842.305546
835.134487
820.948320
807.599710
795.118107
783.531042
772.864137
763.140875
754.382741
746.608998
739.836811
734.081075
729.354454
725.667369
723.027930
721.441939
720.912887
721.441939
723.027931
725.667374
729.354461
734.081072
739.836818
746.609010
754.382745
763.140890
772.864136
783.531053
795.118106
807.599719
820.948343
835.134495
828.769457
814.335814
800.754338
788.054996
776.265796
765.412808
755.519925
746.609006
738.699652
731.809324
725.953180
721.144104
717.392698
714.707215
713.093556
712.555275
713.093557
714.707216
717.392704
721.144111
725.953177
731.809331
738.699664
746.609010
755.519940
765.412807
776.265807
788.054994
800.754347
814.335836
828.769464
823.224473
808.575237
794.790899
781.901869
769.936576
758.921480
748.880830
739.836810
731.809316
724.816069
718.872453
713.991544
710.184105
707.458509
705.820747
705.274426
705.820748
707.458510
710.184110
713.991552
718.872449
724.816076
731.809328
739.836814
748.880845
758.921479
769.936587
781.901867
794.790908
808.575260
823.224479
818.511747
803.679279
789.722525
776.672279
764.557324
753.404450
743.238211
734.081068
725.953165
718.872446
712.854487
707.912528
704.057465
701.297777
699.639531
699.086376
699.639531
701.297779
704.057471
707.912536
712.854484
718.872453
725.953177
734.081072
743.238226
753.404449
764.557335
776.672277
789.722534
803.679302
818.511754
814.641659
799.658720
785.560379
772.377741
760.139884
748.873867
738.604494
729.354455
721.144097
713.991546
707.912537
702.920443
699.026271
696.238587
694.563518
694.004752
694.563519
696.238589
699.026277
702.920450
707.912533
713.991553
721.144109
729.354459
738.604509
748.873866
760.139895
772.377739
785.560388
799.658743
814.641666
811.622723
796.522405
782.313616
769.027705
756.693974
745.339698
734.989874
725.667369
717.392691
710.184106
704.057473
699.026270
695.101592
692.292069
690.603877
690.040733
690.603877
692.292070
695.101597
699.026278
704.057470
710.184113
717.392703
725.667374
734.989890
745.339697
756.693985
769.027702
782.313625
796.522428
811.622729
809.461582
794.277239
779.989385
766.629543
754.227181
742.809724
732.402308
723.027928
714.707204
707.458507
701.297782
696.238583
692.292065
689.466908
687.769322
687.203046
687.769323
689.466910
692.292071
696.238591
701.297779
707.458514
714.707216
723.027932
732.402323
742.809723
754.227192
766.629541
779.989394
794.277262
809.461589
808.162994
792.928160
778.592798
765.188533
752.744931
741.289510
730.847488
721.441936
713.093545
705.820746
699.639535
694.563514
690.603874
687.769323
686.066092
685.497932
686.066093
687.769324
690.603879
694.563522
699.639532
705.820753
713.093558
721.441941
730.847503
741.289509
752.744943
765.188531
778.592807
792.928184
808.163001
807.729814
792.478138
778.126927
764.707844
752.250486
740.782400
730.328834
720.912885
712.555265
705.274425
699.086381
694.004749
690.040731
687.203046
685.497933
684.929145
685.497934
687.203048
690.040737
694.004757
699.086379
705.274433
712.555278
720.912890
730.328851
740.782400
752.250498
764.707842
778.126937
792.478162
807.729821
808.162994
792.928160
778.592797
765.188533
752.744931
741.289510
730.847488
721.441936
713.093545
705.820746
699.639536
694.563514
690.603874
687.769323
686.066093
685.497933
686.066093
687.769325
690.603880
694.563522
699.639533
705.820754
713.093559
721.441942
730.847504
741.289510
752.744944
765.188531
778.592807
792.928185
808.163002
809.461582
794.277238
779.989384
766.629543
754.227181
742.809724
732.402308
723.027928
714.707204
707.458507
701.297782
696.238583
692.292066
689.466909
687.769323
687.203046
687.769324
689.466911
692.292072
696.238592
701.297780
707.458515
714.707218
723.027933
732.402325
742.809724
754.227194
766.629542
779.989395
794.277263
809.461590
811.622722
796.522405
782.313616
769.027704
756.693974
745.339698
734.989874
725.667369
717.392691
710.184106
704.057473
699.026271
695.101592
692.292069
690.603877
690.040734
690.603878
692.292071
695.101598
699.026279
704.057471
710.184115
717.392705
725.667376
734.989892
745.339699
756.693987
769.027704
782.313627
796.522430
811.622731
814.641659
799.658719
785.560379
772.377741
760.139883
748.873867
738.604494
729.354455
721.144097
713.991547
707.912537
702.920444
699.026272
696.238588
694.563519
694.004754
694.563520
696.238590
699.026279
702.920452
707.912536
713.991556
721.144112
729.354462
738.604512
748.873869
760.139898
772.377742
785.560391
799.658745
814.641669
818.511749
803.679281
789.722527
776.672281
764.557326
753.404452
743.238213
734.081071
725.953169
718.872450
712.854491
707.912533
704.057470
701.297782
699.639535
699.086381
699.639536
701.297784
704.057476
707.912541
712.854490
718.872460
725.953184
734.081079
743.238232
753.404455
764.557341
776.672283
789.722540
803.679308
818.511760
823.224469
808.575233
794.790895
781.901865
769.936572
758.921476
748.880826
739.836807
731.809312
724.816066
718.872450
713.991542
710.184102
707.458507
705.820745
705.274425
705.820746
707.458509
710.184109
713.991551
718.872449
724.816076
731.809328
739.836815
748.880845
758.921480
769.936589
781.901868
794.790909
808.575261
823.224481
828.769459
814.335816
800.754341
788.054998
776.265799
765.412811
755.519929
746.609010
738.699656
731.809329
725.953185
721.144109
717.392704
714.707221
713.093562
712.555282
713.093564
714.707223
717.392711
721.144119
725.953185
731.809339
738.699672
746.609019
755.519949
765.412816
776.265816
788.055003
800.754356
814.335845
828.769472
835.134482
820.948314
807.599704
795.118101
783.531036
772.864131
763.140870
754.382736
746.608994
739.836807
734.081071
729.354450
725.667366
723.027927
721.441936
720.912885
721.441937
723.027930
725.667373
729.354460
734.081071
739.836817
746.609011
754.382746
763.140891
772.864138
783.531055
795.118108
807.599721
820.948345
835.134497
842.305542
828.398189
815.311932
803.075643
791.716310
781.259053
771.726892
763.140891
755.519934
748.880847
743.238235
738.604511
734.989892
732.402330
730.847510
730.328856
730.847511
732.402332
734.989900
738.604521
743.238235
748.880858
755.519951
763.140901
771.726914
781.259060
791.716330
803.075651
815.311952
828.398222
842.305559
850.266801
836.668986
823.873992
811.910048
800.803542
790.579034
781.259033
772.864131
765.412795
758.921476
753.404452
748.873862
745.339694
742.809723
741.289509
740.782400
741.289511
742.809726
745.339702
748.873872
753.404453
758.921487
765.412813
772.864142
781.259055
790.579043
800.803564
811.910059
823.874014
836.669021
850.266821
859.000719
845.742484
833.267021
821.601854
810.772712
800.803542
791.716290
783.531036
776.265783
769.936572
764.557325
760.139878
756.693970
754.227180
752.744931
752.250485
752.744932
754.227183
756.693978
760.139888
764.557327
769.936584
776.265801
783.531048
791.716314
800.803553
810.772736
821.601868
833.267046
845.742522
859.000743
868.488052
855.598689
843.470321
832.129705
821.601854
811.910048
803.075624
795.118101
788.054983
781.901864
776.672280
772.377736
769.027701
766.629542
765.188532
764.707843
765.188533
766.629545
769.027708
772.377746
776.672282
781.901877
788.055001
795.118113
803.075648
811.910060
821.601879
832.129722
843.470350
855.598732
868.488080
878.707818
866.215806
854.461330
843.470321
833.267021
823.873992
815.311913
807.599703
800.754326
794.790894
789.722526
785.560373
782.313612
779.989384
778.592797
778.126927
778.592798
779.989386
782.313619
785.560384
789.722529
794.790906
800.754344
807.599716
815.311938
823.874005
833.267047
843.470340
854.461363
866.215855
878.707854
889.637501
877.570443
866.215832
855.598717
845.742512
836.669015
828.398201
820.948344
814.335833
808.575264
803.679312
799.658747
796.522434
794.277271
792.928193
792.478171
792.928194
794.277273
796.522441
799.658757
803.679314
808.575277
814.335850
820.948357
828.398225
836.669029
845.742540
855.598738
866.215869
877.570500
889.637551
901.252906
889.637470
878.707818
868.488053
859.000720
850.266802
842.305526
835.134483
828.769447
823.224470
818.511750
814.641656
811.622720
809.461583
808.162995
807.729815
808.162997
809.461586
811.622727
814.641666
818.511753
823.224482
828.769464
835.134496
842.305550
850.266816
859.000747
868.488074
878.707856
889.637536
901.252978
