# vtk DataFile Version 2.0
Unstructured Grid Example
ASCII
DATASET UNSTRUCTURED_GRID

POINTS 961 float
0.1 0.005 0
0.0966667 0.005 0
0.0933333 0.005 0
0.09 0.005 0
0.0866667 0.005 0
0.0833333 0.005 0
0.08 0.005 0
0.0766667 0.005 0
0.0733333 0.005 0
0.07 0.005 0
0.0666667 0.005 0
0.0633333 0.005 0
0.06 0.005 0
0.0566667 0.005 0
0.0533333 0.005 0
0.05 0.005 0
0.0466667 0.005 0
0.0433333 0.005 0
0.04 0.005 0
0.0366667 0.005 0
0.0333333 0.005 0
0.03 0.005 0
0.0266667 0.005 0
0.0233333 0.005 0
0.02 0.005 0
0.0166667 0.005 0
0.0133333 0.005 0
0.01 0.005 0
0.00666667 0.005 0
0.00333333 0.005 0
0 0.005 0
0.1 0.00166667 0
0.0966667 0.00166667 0
0.0933333 0.00166667 0
0.09 0.00166667 0
0.0866667 0.00166667 0
0.0833333 0.00166667 0
0.08 0.00166667 0
0.0766667 0.00166667 0
0.0733333 0.00166667 0
0.07 0.00166667 0
0.0666667 0.00166667 0
0.0633333 0.00166667 0
0.06 0.00166667 0
0.0566667 0.00166667 0
0.0533333 0.00166667 0
0.05 0.00166667 0
0.0466667 0.00166667 0
0.0433333 0.00166667 0
0.04 0.00166667 0
0.0366667 0.00166667 0
0.0333333 0.00166667 0
0.03 0.00166667 0
0.0266667 0.00166667 0
0.0233333 0.00166667 0
0.02 0.00166667 0
0.0166667 0.00166667 0
0.0133333 0.00166667 0
0.01 0.00166667 0
0.00666667 0.00166667 0
0.00333333 0.00166667 0
0 0.00166667 0
0.1 -0.00166667 0
0.0966667 -0.00166667 0
0.0933333 -0.00166667 0
0.09 -0.00166667 0
0.0866667 -0.00166667 0
0.0833333 -0.00166667 0
0.08 -0.00166667 0
0.0766667 -0.00166667 0
0.0733333 -0.00166667 0
0.07 -0.00166667 0
0.0666667 -0.00166667 0
0.0633333 -0.00166667 0
0.06 -0.00166667 0
0.0566667 -0.00166667 0
0.0533333 -0.00166667 0
0.05 -0.00166667 0
0.0466667 -0.00166667 0
0.0433333 -0.00166667 0
0.04 -0.00166667 0
0.0366667 -0.00166667 0
0.0333333 -0.00166667 0
0.03 -0.00166667 0
0.0266667 -0.00166667 0
0.0233333 -0.00166667 0
0.02 -0.00166667 0
0.0166667 -0.00166667 0
0.0133333 -0.00166667 0
0.01 -0.00166667 0
0.00666667 -0.00166667 0
0.00333333 -0.00166667 0
0 -0.00166667 0
0.1 -0.005 0
0.0966667 -0.005 0
0.0933333 -0.005 0
0.09 -0.005 0
0.0866667 -0.005 0
0.0833333 -0.005 0
0.08 -0.005 0
0.0766667 -0.005 0
0.0733333 -0.005 0
0.07 -0.005 0
0.0666667 -0.005 0
0.0633333 -0.005 0
0.06 -0.005 0
0.0566667 -0.005 0
0.0533333 -0.005 0
0.05 -0.005 0
0.0466667 -0.005 0
0.0433333 -0.005 0
0.04 -0.005 0
0.0366667 -0.005 0
0.0333333 -0.005 0
0.03 -0.005 0
0.0266667 -0.005 0
0.0233333 -0.005 0
0.02 -0.005 0
0.0166667 -0.005 0
0.0133333 -0.005 0
0.01 -0.005 0
0.00666667 -0.005 0
0.00333333 -0.005 0
0 -0.005 0
0.1 -0.00833333 0
0.0966667 -0.00833333 0
0.0933333 -0.00833333 0
0.09 -0.00833333 0
0.0866667 -0.00833333 0
0.0833333 -0.00833333 0
0.08 -0.00833333 0
0.0766667 -0.00833333 0
0.0733333 -0.00833333 0
0.07 -0.00833333 0
0.0666667 -0.00833333 0
0.0633333 -0.00833333 0
0.06 -0.00833333 0
0.0566667 -0.00833333 0
0.0533333 -0.00833333 0
0.05 -0.00833333 0
0.0466667 -0.00833333 0
0.0433333 -0.00833333 0
0.04 -0.00833333 0
0.0366667 -0.00833333 0
0.0333333 -0.00833333 0
0.03 -0.00833333 0
0.0266667 -0.00833333 0
0.0233333 -0.00833333 0
0.02 -0.00833333 0
0.0166667 -0.00833333 0
0.0133333 -0.00833333 0
0.01 -0.00833333 0
0.00666667 -0.00833333 0
0.00333333 -0.00833333 0
0 -0.00833333 0
0.1 -0.0116667 0
0.0966667 -0.0116667 0
0.0933333 -0.0116667 0
0.09 -0.0116667 0
0.0866667 -0.0116667 0
0.0833333 -0.0116667 0
0.08 -0.0116667 0
0.0766667 -0.0116667 0
0.0733333 -0.0116667 0
0.07 -0.0116667 0
0.0666667 -0.0116667 0
0.0633333 -0.0116667 0
0.06 -0.0116667 0
0.0566667 -0.0116667 0
0.0533333 -0.0116667 0
0.05 -0.0116667 0
0.0466667 -0.0116667 0
0.0433333 -0.0116667 0
0.04 -0.0116667 0
0.0366667 -0.0116667 0
0.0333333 -0.0116667 0
0.03 -0.0116667 0
0.0266667 -0.0116667 0
0.0233333 -0.0116667 0
0.02 -0.0116667 0
0.0166667 -0.0116667 0
0.0133333 -0.0116667 0
0.01 -0.0116667 0
0.00666667 -0.0116667 0
0.00333333 -0.0116667 0
0 -0.0116667 0
0.1 -0.015 0
0.0966667 -0.015 0
0.0933333 -0.015 0
0.09 -0.015 0
0.0866667 -0.015 0
0.0833333 -0.015 0
0.08 -0.015 0
0.0766667 -0.015 0
0.0733333 -0.015 0
0.07 -0.015 0
0.0666667 -0.015 0
0.0633333 -0.015 0
0.06 -0.015 0
0.0566667 -0.015 0
0.0533333 -0.015 0
0.05 -0.015 0
0.0466667 -0.015 0
0.0433333 -0.015 0
0.04 -0.015 0
0.0366667 -0.015 0
0.0333333 -0.015 0
0.03 -0.015 0
0.0266667 -0.015 0
0.0233333 -0.015 0
0.02 -0.015 0
0.0166667 -0.015 0
0.0133333 -0.015 0
0.01 -0.015 0
0.00666667 -0.015 0
0.00333333 -0.015 0
0 -0.015 0
0.1 -0.0183333 0
0.0966667 -0.0183333 0
0.0933333 -0.0183333 0
0.09 -0.0183333 0
0.0866667 -0.0183333 0
0.0833333 -0.0183333 0
0.08 -0.0183333 0
0.0766667 -0.0183333 0
0.0733333 -0.0183333 0
0.07 -0.0183333 0
0.0666667 -0.0183333 0
0.0633333 -0.0183333 0
0.06 -0.0183333 0
0.0566667 -0.0183333 0
0.0533333 -0.0183333 0
0.05 -0.0183333 0
0.0466667 -0.0183333 0
0.0433333 -0.0183333 0
0.04 -0.0183333 0
0.0366667 -0.0183333 0
0.0333333 -0.0183333 0
0.03 -0.0183333 0
0.0266667 -0.0183333 0
0.0233333 -0.0183333 0
0.02 -0.0183333 0
0.0166667 -0.0183333 0
0.0133333 -0.0183333 0
0.01 -0.0183333 0
0.00666667 -0.0183333 0
0.00333333 -0.0183333 0
0 -0.0183333 0
0.1 -0.0216667 0
0.0966667 -0.0216667 0
0.0933333 -0.0216667 0
0.09 -0.0216667 0
0.0866667 -0.0216667 0
0.0833333 -0.0216667 0
0.08 -0.0216667 0
0.0766667 -0.0216667 0
0.0733333 -0.0216667 0
0.07 -0.0216667 0
0.0666667 -0.0216667 0
0.0633333 -0.0216667 0
0.06 -0.0216667 0
0.0566667 -0.0216667 0
0.0533333 -0.0216667 0
0.05 -0.0216667 0
0.0466667 -0.0216667 0
0.0433333 -0.0216667 0
0.04 -0.0216667 0
0.0366667 -0.0216667 0
0.0333333 -0.0216667 0
0.03 -0.0216667 0
0.0266667 -0.0216667 0
0.0233333 -0.0216667 0
0.02 -0.0216667 0
0.0166667 -0.0216667 0
0.0133333 -0.0216667 0
0.01 -0.0216667 0
0.00666667 -0.0216667 0
0.00333333 -0.0216667 0
0 -0.0216667 0
0.1 -0.025 0
0.0966667 -0.025 0
0.0933333 -0.025 0
0.09 -0.025 0
0.0866667 -0.025 0
0.0833333 -0.025 0
0.08 -0.025 0
0.0766667 -0.025 0
0.0733333 -0.025 0
0.07 -0.025 0
0.0666667 -0.025 0
0.0633333 -0.025 0
0.06 -0.025 0
0.0566667 -0.025 0
0.0533333 -0.025 0
0.05 -0.025 0
0.0466667 -0.025 0
0.0433333 -0.025 0
0.04 -0.025 0
0.0366667 -0.025 0
0.0333333 -0.025 0
0.03 -0.025 0
0.0266667 -0.025 0
0.0233333 -0.025 0
0.02 -0.025 0
0.0166667 -0.025 0
0.0133333 -0.025 0
0.01 -0.025 0
0.00666667 -0.025 0
0.00333333 -0.025 0
0 -0.025 0
0.1 -0.0283333 0
0.0966667 -0.0283333 0
0.0933333 -0.0283333 0
0.09 -0.0283333 0
0.0866667 -0.0283333 0
0.0833333 -0.0283333 0
0.08 -0.0283333 0
0.0766667 -0.0283333 0
0.0733333 -0.0283333 0
0.07 -0.0283333 0
0.0666667 -0.0283333 0
0.0633333 -0.0283333 0
0.06 -0.0283333 0
0.0566667 -0.0283333 0
0.0533333 -0.0283333 0
0.05 -0.0283333 0
0.0466667 -0.0283333 0
0.0433333 -0.0283333 0
0.04 -0.0283333 0
0.0366667 -0.0283333 0
0.0333333 -0.0283333 0
0.03 -0.0283333 0
0.0266667 -0.0283333 0
0.0233333 -0.0283333 0
0.02 -0.0283333 0
0.0166667 -0.0283333 0
0.0133333 -0.0283333 0
0.01 -0.0283333 0
0.00666667 -0.0283333 0
0.00333333 -0.0283333 0
0 -0.0283333 0
0.1 -0.0316667 0
0.0966667 -0.0316667 0
0.0933333 -0.0316667 0
0.09 -0.0316667 0
0.0866667 -0.0316667 0
0.0833333 -0.0316667 0
0.08 -0.0316667 0
0.0766667 -0.0316667 0
0.0733333 -0.0316667 0
0.07 -0.0316667 0
0.0666667 -0.0316667 0
0.0633333 -0.0316667 0
0.06 -0.0316667 0
0.0566667 -0.0316667 0
0.0533333 -0.0316667 0
0.05 -0.0316667 0
0.0466667 -0.0316667 0
0.0433333 -0.0316667 0
0.04 -0.0316667 0
0.0366667 -0.0316667 0
0.0333333 -0.0316667 0
0.03 -0.0316667 0
0.0266667 -0.0316667 0
0.0233333 -0.0316667 0
0.02 -0.0316667 0
0.0166667 -0.0316667 0
0.0133333 -0.0316667 0
0.01 -0.0316667 0
0.00666667 -0.0316667 0
0.00333333 -0.0316667 0
0 -0.0316667 0
0.1 -0.035 0
0.0966667 -0.035 0
0.0933333 -0.035 0
0.09 -0.035 0
0.0866667 -0.035 0
0.0833333 -0.035 0
0.08 -0.035 0
0.0766667 -0.035 0
0.0733333 -0.035 0
0.07 -0.035 0
0.0666667 -0.035 0
0.0633333 -0.035 0
0.06 -0.035 0
0.0566667 -0.035 0
0.0533333 -0.035 0
0.05 -0.035 0
0.0466667 -0.035 0
0.0433333 -0.035 0
0.04 -0.035 0
0.0366667 -0.035 0
0.0333333 -0.035 0
0.03 -0.035 0
0.0266667 -0.035 0
0.0233333 -0.035 0
0.02 -0.035 0
0.0166667 -0.035 0
0.0133333 -0.035 0
0.01 -0.035 0
0.00666667 -0.035 0
0.00333333 -0.035 0
0 -0.035 0
0.1 -0.0383333 0
0.0966667 -0.0383333 0
0.0933333 -0.0383333 0
0.09 -0.0383333 0
0.0866667 -0.0383333 0
0.0833333 -0.0383333 0
0.08 -0.0383333 0
0.0766667 -0.0383333 0
0.0733333 -0.0383333 0
0.07 -0.0383333 0
0.0666667 -0.0383333 0
0.0633333 -0.0383333 0
0.06 -0.0383333 0
0.0566667 -0.0383333 0
0.0533333 -0.0383333 0
0.05 -0.0383333 0
0.0466667 -0.0383333 0
0.0433333 -0.0383333 0
0.04 -0.0383333 0
0.0366667 -0.0383333 0
0.0333333 -0.0383333 0
0.03 -0.0383333 0
0.0266667 -0.0383333 0
0.0233333 -0.0383333 0
0.02 -0.0383333 0
0.0166667 -0.0383333 0
0.0133333 -0.0383333 0
0.01 -0.0383333 0
0.00666667 -0.0383333 0
0.00333333 -0.0383333 0
0 -0.0383333 0
0.1 -0.0416667 0
0.0966667 -0.0416667 0
0.0933333 -0.0416667 0
0.09 -0.0416667 0
0.0866667 -0.0416667 0
0.0833333 -0.0416667 0
0.08 -0.0416667 0
0.0766667 -0.0416667 0
0.0733333 -0.0416667 0
0.07 -0.0416667 0
0.0666667 -0.0416667 0
0.0633333 -0.0416667 0
0.06 -0.0416667 0
0.0566667 -0.0416667 0
0.0533333 -0.0416667 0
0.05 -0.0416667 0
0.0466667 -0.0416667 0
0.0433333 -0.0416667 0
0.04 -0.0416667 0
0.0366667 -0.0416667 0
0.0333333 -0.0416667 0
0.03 -0.0416667 0
0.0266667 -0.0416667 0
0.0233333 -0.0416667 0
0.02 -0.0416667 0
0.0166667 -0.0416667 0
0.0133333 -0.0416667 0
0.01 -0.0416667 0
0.00666667 -0.0416667 0
0.00333333 -0.0416667 0
0 -0.0416667 0
0.1 -0.045 0
0.0966667 -0.045 0
0.0933333 -0.045 0
0.09 -0.045 0
0.0866667 -0.045 0
0.0833333 -0.045 0
0.08 -0.045 0
0.0766667 -0.045 0
0.0733333 -0.045 0
0.07 -0.045 0
0.0666667 -0.045 0
0.0633333 -0.045 0
0.06 -0.045 0
0.0566667 -0.045 0
0.0533333 -0.045 0
0.05 -0.045 0
0.0466667 -0.045 0
0.0433333 -0.045 0
0.04 -0.045 0
0.0366667 -0.045 0
0.0333333 -0.045 0
0.03 -0.045 0
0.0266667 -0.045 0
0.0233333 -0.045 0
0.02 -0.045 0
0.0166667 -0.045 0
0.0133333 -0.045 0
0.01 -0.045 0
0.00666667 -0.045 0
0.00333333 -0.045 0
0 -0.045 0
0.1 -0.0483333 0
0.0966667 -0.0483333 0
0.0933333 -0.0483333 0
0.09 -0.0483333 0
0.0866667 -0.0483333 0
[...]
POINT_DATA 961
SCALARS Temp float 1
LOOKUP_TABLE default
1037.251327
1030.923530
1024.969238
1019.401586
1014.232864
1009.474514
1005.137025
1001.229998
997.762048
994.740848
992.173066
990.064370
988.419424
987.241862
986.534282
986.298248
986.534282
987.241863
988.419427
990.064373
992.173065
994.740852
997.762054
1001.230001
1005.137033
1009.474515
1014.232871
1019.401588
1024.969246
1030.923549
1037.251342
1030.923540
1024.349710
1018.163907
1012.379781
1007.010095
1002.066736
997.560603
993.501668
989.898880
986.760215
984.092595
981.901911
980.193009
978.969662
978.234570
977.989359
978.234571
978.969663
980.193011
981.901914
984.092594
986.760218
989.898887
993.501671
997.560611
1002.066738
1007.010103
1012.379783
1018.163916
1024.349727
1030.923549
1024.969239
1018.163901
1011.760254
1005.772430
1000.213641
995.096194
990.431370
986.229493
982.499827
979.250628
976.489064
974.221231
972.452147
971.185718
970.424739
970.170893
970.424740
971.185719
972.452150
974.221235
976.489063
979.250632
982.499834
986.229496
990.431378
995.096196
1000.213649
1005.772432
1011.760262
1018.163916
1024.969247
1019.401582
1012.379769
1005.772424
999.594129
993.858518
988.578286
983.765075
979.429538
975.581233
972.228679
969.379270
967.039299
965.213941
963.907227
963.122042
962.860121
963.122042
963.907228
965.213944
967.039302
969.379269
972.228683
975.581240
979.429541
983.765084
988.578287
993.858525
999.594130
1005.772431
1012.379783
1019.401589
1014.232866
1007.010089
1000.213642
993.858524
987.958760
982.527408
977.576443
973.116824
969.158381
965.709876
962.778918
960.371976
958.494376
957.150265
956.342607
956.073190
956.342608
957.150265
958.494379
960.371980
962.778916
965.709880
969.158387
973.116827
977.576452
982.527409
987.958767
993.858525
1000.213649
1007.010102
1014.232872
1009.474512
1002.066726
995.096191
988.578288
982.527404
976.956930
971.879148
967.305297
963.245460
959.708623
956.702589
954.233994
952.308301
950.929760
950.101415
949.825097
950.101415
950.929761
952.308304
954.233998
956.702588
959.708627
963.245466
967.305300
971.879157
976.956931
982.527411
988.578289
995.096197
1002.066739
1009.474517
1005.137029
997.560598
990.431372
983.765084
977.576446
971.879155
966.685773
962.007793
957.855530
954.238174
951.163705
948.638911
946.669377
945.259453
944.412250
944.129641
944.412250
945.259454
946.669380
948.638915
951.163704
954.238178
957.855537
962.007796
966.685781
971.879155
977.576452
983.765084
990.431378
997.560611
1005.137033
1001.229999
993.501660
986.229492
979.429543
973.116822
967.305300
962.007789
957.236016
953.000499
949.310614
946.174502
943.599085
941.590062
940.151869
939.287679
938.999403
939.287679
940.151869
941.590065
943.599089
946.174501
949.310618
953.000506
957.236018
962.007798
967.305300
973.116828
979.429543
986.229497
993.501672
1001.230003
997.762051
989.898875
982.499830
975.581243
969.158383
963.245467
957.855530
953.000503
948.691090
944.936827
941.745999
939.125649
937.081574
935.618288
934.739021
934.445716
934.739021
935.618289
937.081577
939.125653
941.745998
944.936831
948.691096
953.000506
957.855539
963.245466
969.158389
975.581242
982.499835
989.898888
997.762055
994.740848
986.760206
979.250627
972.228684
965.709873
959.708625
954.238169
949.310614
944.936822
941.126476
937.887980
935.228485
933.153874
931.668729
930.776326
930.478639
930.776326
931.668729
933.153877
935.228489
937.887979
941.126480
944.936829
949.310617
954.238178
959.708625
965.709880
972.228683
979.250632
986.760218
994.740852
992.173064
984.092583
976.489060
969.379272
962.778912
956.702589
951.163697
946.174499
941.745991
937.887977
934.608968
931.916202
929.815638
928.311914
927.408347
927.106936
927.408347
928.311914
929.815641
931.916206
934.608966
937.887981
941.745998
946.174501
951.163706
956.702588
962.778918
969.379272
976.489065
984.092596
992.173067
990.064370
981.901902
974.221231
967.039305
960.371974
954.233998
948.638907
943.599086
939.125645
935.228486
931.916207
929.196119
927.074242
925.555260
924.642526
924.338057
924.642526
925.555261
927.074245
929.196124
931.916205
935.228490
939.125652
943.599088
948.638916
954.233998
960.371981
967.039304
974.221236
981.901915
990.064374
988.419425
980.193000
972.452146
965.213946
958.494374
952.308304
946.669373
941.590062
937.081570
933.153875
929.815642
927.074242
924.935738
923.404854
922.484968
922.178114
922.484969
923.404855
924.935742
927.074246
929.815641
933.153879
937.081577
941.590065
946.669382
952.308304
958.494381
965.213945
972.452151
980.193012
988.419428
987.241861
978.969651
971.185716
963.907231
957.150261
950.929762
945.259447
940.151867
935.618282
931.668727
928.311916
925.555258
923.404853
921.865449
920.940443
920.631880
920.940443
921.865449
923.404856
925.555262
928.311914
931.668731
935.618289
940.151870
945.259456
950.929762
957.150268
963.907230
971.185721
978.969664
987.241865
986.534281
978.234560
970.424737
963.122046
956.342604
950.101417
944.412244
939.287677
934.739015
930.776325
927.408349
924.642523
922.484967
920.940443
920.012361
919.702772
920.012361
920.940444
922.484970
924.642528
927.408348
930.776329
934.739022
939.287680
944.412253
950.101417
956.342610
963.122045
970.424742
978.234573
986.534285
986.298247
977.989349
970.170890
962.860125
956.073187
949.825098
944.129635
938.999402
934.445710
930.478638
927.106939
924.338055
922.178112
920.631881
919.702772
919.392841
919.702773
920.631881
922.178116
924.338059
927.106938
930.478643
934.445718
938.999405
944.129644
949.825098
956.073193
962.860124
970.170896
977.989362
986.298251
986.534281
978.234560
970.424737
963.122046
956.342604
950.101417
944.412244
939.287677
934.739015
930.776325
927.408350
924.642524
922.484967
920.940443
920.012361
919.702772
920.012361
920.940444
922.484970
924.642528
927.408348
930.776329
934.739023
939.287681
944.412253
950.101417
956.342611
963.122045
970.424742
978.234573
986.534285
987.241861
978.969651
971.185716
963.907231
957.150261
950.929762
945.259447
940.151867
935.618282
931.668727
928.311916
925.555258
923.404853
921.865449
920.940443
920.631881
920.940443
921.865450
923.404856
925.555263
928.311915
931.668732
935.618290
940.151870
945.259456
950.929762
957.150268
963.907231
971.185722
978.969665
987.241866
988.419424
980.192999
972.452146
965.213946
958.494374
952.308304
946.669373
941.590062
937.081570
933.153875
929.815642
927.074242
924.935739
923.404855
922.484969
922.178114
922.484969
923.404856
924.935742
927.074247
929.815642
933.153880
937.081578
941.590066
946.669383
952.308305
958.494382
965.213946
972.452152
980.193014
988.419430
990.064370
981.901902
974.221230
967.039304
960.371974
954.233998
948.638907
943.599086
939.125645
935.228486
931.916207
929.196120
927.074243
925.555261
924.642526
924.338057
924.642527
925.555262
927.074246
929.196125
931.916206
935.228491
939.125653
943.599090
948.638917
954.233999
960.371982
967.039305
974.221237
981.901917
990.064376
992.173065
984.092584
976.489061
969.379274
962.778913
956.702590
951.163699
946.174500
941.745993
937.887979
934.608970
931.916205
929.815641
928.311916
927.408350
927.106939
927.408350
928.311917
929.815644
931.916210
934.608970
937.887984
941.746001
946.174505
951.163709
956.702592
962.778922
969.379275
976.489068
984.092599
992.173071
994.740846
986.760203
979.250625
972.228681
965.709871
959.708623
954.238167
949.310612
944.936821
941.126474
937.887979
935.228483
933.153873
931.668727
930.776325
930.478638
930.776325
931.668729
933.153876
935.228488
937.887978
941.126480
944.936829
949.310617
954.238178
959.708626
965.709880
972.228684
979.250633
986.760219
994.740853
997.762052
989.898877
982.499831
975.581244
969.158384
963.245468
957.855532
953.000506
948.691092
944.936830
941.746002
939.125652
937.081577
935.618292
934.739024
934.445720
934.739025
935.618293
937.081581
939.125657
941.746002
944.936836
948.691101
953.000511
957.855543
963.245471
969.158394
975.581247
982.499840
989.898893
997.762060
1001.229996
993.501656
986.229489
979.429540
973.116819
967.305297
962.007786
957.236013
953.000497
949.310612
946.174500
943.599083
941.590060
940.151867
939.287677
938.999402
939.287678
940.151868
941.590064
943.599089
946.174500
949.310618
953.000506
957.236019
962.007798
967.305301
973.116829
979.429544
986.229498
993.501674
1001.230004
1005.137031
997.560601
990.431375
983.765087
977.576449
971.879159
966.685777
962.007798
957.855535
954.238179
951.163711
948.638916
946.669383
945.259459
944.412256
944.129647
944.412257
945.259460
946.669387
948.638922
951.163711
954.238185
957.855544
962.007804
966.685789
971.879163
977.576460
983.765092
990.431386
997.560619
1005.137041
1009.474510
1002.066724
995.096189
988.578287
982.527403
976.956930
971.879148
967.305297
963.245460
959.708623
956.702590
954.233995
952.308302
950.929762
950.101417
949.825098
950.101417
950.929763
952.308306
954.234001
956.702591
959.708630
963.245470
967.305303
971.879160
976.956935
982.527415
988.578293
995.096201
1002.066744
1009.474521
1014.232860
1007.010083
1000.213636
993.858518
987.958754
982.527403
977.576438
973.116819
969.158376
965.709871
962.778913
960.371972
958.494372
957.150261
956.342604
956.073186
956.342604
957.150262
958.494376
960.371977
962.778914
965.709878
969.158386
973.116825
977.576451
982.527409
987.958767
993.858526
1000.213650
1007.010104
1014.232873
1019.401581
1012.379768
1005.772424
999.594129
993.858518
988.578287
983.765077
979.429540
975.581236
972.228681
969.379273
967.039302
965.213944
963.907231
963.122046
962.860125
963.122046
963.907232
965.213948
967.039307
969.379275
972.228688
975.581246
979.429547
983.765090
988.578294
993.858532
999.594138
1005.772439
1012.379791
1019.401597
1024.969232
1018.163894
1011.760247
1005.772423
1000.213636
995.096189
990.431365
986.229488
982.499823
979.250624
976.489060
974.221228
972.452144
971.185715
970.424736
970.170890
970.424737
971.185717
972.452148
974.221233
976.489062
979.250631
982.499833
986.229496
990.431378
995.096196
1000.213651
1005.772434
1011.760266
1018.163920
1024.969251
1030.923538
1024.349709
1018.163908
1012.379783
1007.010098
1002.066740
997.560607
993.501673
989.898886
986.760220
984.092601
981.901917
980.193015
978.969669
978.234578
977.989367
978.234578
978.969671
980.193019
981.901923
984.092603
986.760227
989.898896
993.501680
997.560621
1002.066748
1007.010113
1012.379794
1018.163928
1024.349740
1030.923565
1037.251316
1030.923521
1024.969232
1019.401581
1014.232861
1009.474511
1005.137023
1001.229997
997.762046
994.740847
992.173065
990.064369
988.419424
987.241862
986.534281
986.298248
986.534282
987.241863
988.419427
990.064374
992.173067
994.740854
997.762056
1001.230004
1005.137036
1009.474519
1014.232875
1019.401593
1024.969253
1030.923557
1037.251355
