# vtk DataFile Version 2.0
Unstructured Grid Example
ASCII
DATASET UNSTRUCTURED_GRID

POINTS 961 float
0.1 0.005 0
0.0966667 0.005 0
0.0933333 0.005 0
0.09 0.005 0
0.0866667 0.005 0
0.0833333 0.005 0
0.08 0.005 0
0.0766667 0.005 0
0.0733333 0.005 0
0.07 0.005 0
0.0666667 0.005 0
0.0633333 0.005 0
0.06 0.005 0
0.0566667 0.005 0
0.0533333 0.005 0
0.05 0.005 0
0.0466667 0.005 0
0.0433333 0.005 0
0.04 0.005 0
0.0366667 0.005 0
0.0333333 0.005 0
0.03 0.005 0
0.0266667 0.005 0
0.0233333 0.005 0
0.02 0.005 0
0.0166667 0.005 0
0.0133333 0.005 0
0.01 0.005 0
0.00666667 0.005 0
0.00333333 0.005 0
0 0.005 0
0.1 0.00166667 0
0.0966667 0.00166667 0
0.0933333 0.00166667 0
0.09 0.00166667 0
0.0866667 0.00166667 0
0.0833333 0.00166667 0
0.08 0.00166667 0
0.0766667 0.00166667 0
0.0733333 0.00166667 0
0.07 0.00166667 0
0.0666667 0.00166667 0
0.0633333 0.00166667 0
0.06 0.00166667 0
0.0566667 0.00166667 0
0.0533333 0.00166667 0
0.05 0.00166667 0
0.0466667 0.00166667 0
0.0433333 0.00166667 0
0.04 0.00166667 0
0.0366667 0.00166667 0
0.0333333 0.00166667 0
0.03 0.00166667 0
0.0266667 0.00166667 0
0.0233333 0.00166667 0
0.02 0.00166667 0
0.0166667 0.00166667 0
0.0133333 0.00166667 0
0.01 0.00166667 0
0.00666667 0.00166667 0
0.00333333 0.00166667 0
0 0.00166667 0
0.1 -0.00166667 0
0.0966667 -0.00166667 0
0.0933333 -0.00166667 0
0.09 -0.00166667 0
0.0866667 -0.00166667 0
0.0833333 -0.00166667 0
0.08 -0.00166667 0
0.0766667 -0.00166667 0
0.0733333 -0.00166667 0
0.07 -0.00166667 0
0.0666667 -0.00166667 0
0.0633333 -0.00166667 0
0.06 -0.00166667 0
0.0566667 -0.00166667 0
0.0533333 -0.00166667 0
0.05 -0.00166667 0
0.0466667 -0.00166667 0
0.0433333 -0.00166667 0
0.04 -0.00166667 0
0.0366667 -0.00166667 0
0.0333333 -0.00166667 0
0.03 -0.00166667 0
0.0266667 -0.00166667 0
0.0233333 -0.00166667 0
0.02 -0.00166667 0
0.0166667 -0.00166667 0
0.0133333 -0.00166667 0
0.01 -0.00166667 0
0.00666667 -0.00166667 0
0.00333333 -0.00166667 0
0 -0.00166667 0
0.1 -0.005 0
0.0966667 -0.005 0
0.0933333 -0.005 0
0.09 -0.005 0
0.0866667 -0.005 0
0.0833333 -0.005 0
0.08 -0.005 0
0.0766667 -0.005 0
0.0733333 -0.005 0
0.07 -0.005 0
0.0666667 -0.005 0
0.0633333 -0.005 0
0.06 -0.005 0
0.0566667 -0.005 0
0.0533333 -0.005 0
0.05 -0.005 0
0.0466667 -0.005 0
0.0433333 -0.005 0
0.04 -0.005 0
0.0366667 -0.005 0
0.0333333 -0.005 0
0.03 -0.005 0
0.0266667 -0.005 0
0.0233333 -0.005 0
0.02 -0.005 0
0.0166667 -0.005 0
0.0133333 -0.005 0
0.01 -0.005 0
0.00666667 -0.005 0
0.00333333 -0.005 0
0 -0.005 0
0.1 -0.00833333 0
0.0966667 -0.00833333 0
0.0933333 -0.00833333 0
0.09 -0.00833333 0
0.0866667 -0.00833333 0
0.0833333 -0.00833333 0
0.08 -0.00833333 0
0.0766667 -0.00833333 0
0.0733333 -0.00833333 0
0.07 -0.00833333 0
0.0666667 -0.00833333 0
0.0633333 -0.00833333 0
0.06 -0.00833333 0
0.0566667 -0.00833333 0
0.0533333 -0.00833333 0
0.05 -0.00833333 0
0.0466667 -0.00833333 0
0.0433333 -0.00833333 0
0.04 -0.00833333 0
0.0366667 -0.00833333 0
0.0333333 -0.00833333 0
0.03 -0.00833333 0
0.0266667 -0.00833333 0
0.0233333 -0.00833333 0
0.02 -0.00833333 0
0.0166667 -0.00833333 0
0.0133333 -0.00833333 0
0.01 -0.00833333 0
0.00666667 -0.00833333 0
0.00333333 -0.00833333 0
0 -0.00833333 0
0.1 -0.0116667 0
0.0966667 -0.0116667 0
0.0933333 -0.0116667 0
0.09 -0.0116667 0
0.0866667 -0.0116667 0
0.0833333 -0.0116667 0
0.08 -0.0116667 0
0.0766667 -0.0116667 0
0.0733333 -0.0116667 0
0.07 -0.0116667 0
0.0666667 -0.0116667 0
0.0633333 -0.0116667 0
0.06 -0.0116667 0
0.0566667 -0.0116667 0
0.0533333 -0.0116667 0
0.05 -0.0116667 0
0.0466667 -0.0116667 0
0.0433333 -0.0116667 0
0.04 -0.0116667 0
0.0366667 -0.0116667 0
0.0333333 -0.0116667 0
0.03 -0.0116667 0
0.0266667 -0.0116667 0
0.0233333 -0.0116667 0
0.02 -0.0116667 0
0.0166667 -0.0116667 0
0.0133333 -0.0116667 0
0.01 -0.0116667 0
0.00666667 -0.0116667 0
0.00333333 -0.0116667 0
0 -0.0116667 0
0.1 -0.015 0
0.0966667 -0.015 0
0.0933333 -0.015 0
0.09 -0.015 0
0.0866667 -0.015 0
0.0833333 -0.015 0
0.08 -0.015 0
0.0766667 -0.015 0
0.0733333 -0.015 0
0.07 -0.015 0
0.0666667 -0.015 0
0.0633333 -0.015 0
0.06 -0.015 0
0.0566667 -0.015 0
0.0533333 -0.015 0
0.05 -0.015 0
0.0466667 -0.015 0
0.0433333 -0.015 0
0.04 -0.015 0
0.0366667 -0.015 0
0.0333333 -0.015 0
0.03 -0.015 0
0.0266667 -0.015 0
0.0233333 -0.015 0
0.02 -0.015 0
0.0166667 -0.015 0
0.0133333 -0.015 0
0.01 -0.015 0
0.00666667 -0.015 0
0.00333333 -0.015 0
0 -0.015 0
0.1 -0.0183333 0
0.0966667 -0.0183333 0
0.0933333 -0.0183333 0
0.09 -0.0183333 0
0.0866667 -0.0183333 0
0.0833333 -0.0183333 0
0.08 -0.0183333 0
0.0766667 -0.0183333 0
0.0733333 -0.0183333 0
0.07 -0.0183333 0
0.0666667 -0.0183333 0
0.0633333 -0.0183333 0
0.06 -0.0183333 0
0.0566667 -0.0183333 0
0.0533333 -0.0183333 0
0.05 -0.0183333 0
0.0466667 -0.0183333 0
0.0433333 -0.0183333 0
0.04 -0.0183333 0
0.0366667 -0.0183333 0
0.0333333 -0.0183333 0
0.03 -0.0183333 0
0.0266667 -0.0183333 0
0.0233333 -0.0183333 0
0.02 -0.0183333 0
0.0166667 -0.0183333 0
0.0133333 -0.0183333 0
0.01 -0.0183333 0
0.00666667 -0.0183333 0
0.00333333 -0.0183333 0
0 -0.0183333 0
0.1 -0.0216667 0
0.0966667 -0.0216667 0
0.0933333 -0.0216667 0
0.09 -0.0216667 0
0.0866667 -0.0216667 0
0.0833333 -0.0216667 0
0.08 -0.0216667 0
0.0766667 -0.0216667 0
0.0733333 -0.0216667 0
0.07 -0.0216667 0
0.0666667 -0.0216667 0
0.0633333 -0.0216667 0
0.06 -0.0216667 0
0.0566667 -0.0216667 0
0.0533333 -0.0216667 0
0.05 -0.0216667 0
0.0466667 -0.0216667 0
0.0433333 -0.0216667 0
0.04 -0.0216667 0
0.0366667 -0.0216667 0
0.0333333 -0.0216667 0
0.03 -0.0216667 0
0.0266667 -0.0216667 0
0.0233333 -0.0216667 0
0.02 -0.0216667 0
0.0166667 -0.0216667 0
0.0133333 -0.0216667 0
0.01 -0.0216667 0
0.00666667 -0.0216667 0
0.00333333 -0.0216667 0
0 -0.0216667 0
0.1 -0.025 0
0.0966667 -0.025 0
0.0933333 -0.025 0
0.09 -0.025 0
0.0866667 -0.025 0
0.0833333 -0.025 0
0.08 -0.025 0
0.0766667 -0.025 0
0.0733333 -0.025 0
0.07 -0.025 0
0.0666667 -0.025 0
0.0633333 -0.025 0
0.06 -0.025 0
0.0566667 -0.025 0
0.0533333 -0.025 0
0.05 -0.025 0
0.0466667 -0.025 0
0.0433333 -0.025 0
0.04 -0.025 0
0.0366667 -0.025 0
0.0333333 -0.025 0
0.03 -0.025 0
0.0266667 -0.025 0
0.0233333 -0.025 0
0.02 -0.025 0
0.0166667 -0.025 0
0.0133333 -0.025 0
0.01 -0.025 0
0.00666667 -0.025 0
0.00333333 -0.025 0
0 -0.025 0
0.1 -0.0283333 0
0.0966667 -0.0283333 0
0.0933333 -0.0283333 0
0.09 -0.0283333 0
0.0866667 -0.0283333 0
0.0833333 -0.0283333 0
0.08 -0.0283333 0
0.0766667 -0.0283333 0
0.0733333 -0.0283333 0
0.07 -0.0283333 0
0.0666667 -0.0283333 0
0.0633333 -0.0283333 0
0.06 -0.0283333 0
0.0566667 -0.0283333 0
0.0533333 -0.0283333 0
0.05 -0.0283333 0
0.0466667 -0.0283333 0
0.0433333 -0.0283333 0
0.04 -0.0283333 0
0.0366667 -0.0283333 0
0.0333333 -0.0283333 0
0.03 -0.0283333 0
0.0266667 -0.0283333 0
0.0233333 -0.0283333 0
0.02 -0.0283333 0
0.0166667 -0.0283333 0
0.0133333 -0.0283333 0
0.01 -0.0283333 0
0.00666667 -0.0283333 0
0.00333333 -0.0283333 0
0 -0.0283333 0
0.1 -0.0316667 0
0.0966667 -0.0316667 0
0.0933333 -0.0316667 0
0.09 -0.0316667 0
0.0866667 -0.0316667 0
0.0833333 -0.0316667 0
0.08 -0.0316667 0
0.0766667 -0.0316667 0
0.0733333 -0.0316667 0
0.07 -0.0316667 0
0.0666667 -0.0316667 0
0.0633333 -0.0316667 0
0.06 -0.0316667 0
0.0566667 -0.0316667 0
0.0533333 -0.0316667 0
0.05 -0.0316667 0
0.0466667 -0.0316667 0
0.0433333 -0.0316667 0
0.04 -0.0316667 0
0.0366667 -0.0316667 0
0.0333333 -0.0316667 0
0.03 -0.0316667 0
0.0266667 -0.0316667 0
0.0233333 -0.0316667 0
0.02 -0.0316667 0
0.0166667 -0.0316667 0
0.0133333 -0.0316667 0
0.01 -0.0316667 0
0.00666667 -0.0316667 0
0.00333333 -0.0316667 0
0 -0.0316667 0
0.1 -0.035 0
0.0966667 -0.035 0
0.0933333 -0.035 0
0.09 -0.035 0
0.0866667 -0.035 0
0.0833333 -0.035 0
0.08 -0.035 0
0.0766667 -0.035 0
0.0733333 -0.035 0
0.07 -0.035 0
0.0666667 -0.035 0
0.0633333 -0.035 0
0.06 -0.035 0
0.0566667 -0.035 0
0.0533333 -0.035 0
0.05 -0.035 0
0.0466667 -0.035 0
0.0433333 -0.035 0
0.04 -0.035 0
0.0366667 -0.035 0
0.0333333 -0.035 0
0.03 -0.035 0
0.0266667 -0.035 0
0.0233333 -0.035 0
0.02 -0.035 0
0.0166667 -0.035 0
0.0133333 -0.035 0
0.01 -0.035 0
0.00666667 -0.035 0
0.00333333 -0.035 0
0 -0.035 0
0.1 -0.0383333 0
0.0966667 -0.0383333 0
0.0933333 -0.0383333 0
0.09 -0.0383333 0
0.0866667 -0.0383333 0
0.0833333 -0.0383333 0
0.08 -0.0383333 0
0.0766667 -0.0383333 0
0.0733333 -0.0383333 0
0.07 -0.0383333 0
0.0666667 -0.0383333 0
0.0633333 -0.0383333 0
0.06 -0.0383333 0
0.0566667 -0.0383333 0
0.0533333 -0.0383333 0
0.05 -0.0383333 0
0.0466667 -0.0383333 0
0.0433333 -0.0383333 0
0.04 -0.0383333 0
0.0366667 -0.0383333 0
0.0333333 -0.0383333 0
0.03 -0.0383333 0
0.0266667 -0.0383333 0
0.0233333 -0.0383333 0
0.02 -0.0383333 0
0.0166667 -0.0383333 0
0.0133333 -0.0383333 0
0.01 -0.0383333 0
0.00666667 -0.0383333 0
0.00333333 -0.0383333 0
0 -0.0383333 0
0.1 -0.0416667 0
0.0966667 -0.0416667 0
0.0933333 -0.0416667 0
0.09 -0.0416667 0
0.0866667 -0.0416667 0
0.0833333 -0.0416667 0
0.08 -0.0416667 0
0.0766667 -0.0416667 0
0.0733333 -0.0416667 0
0.07 -0.0416667 0
0.0666667 -0.0416667 0
0.0633333 -0.0416667 0
0.06 -0.0416667 0
0.0566667 -0.0416667 0
0.0533333 -0.0416667 0
0.05 -0.0416667 0
0.0466667 -0.0416667 0
0.0433333 -0.0416667 0
0.04 -0.0416667 0
0.0366667 -0.0416667 0
0.0333333 -0.0416667 0
0.03 -0.0416667 0
0.0266667 -0.0416667 0
0.0233333 -0.0416667 0
0.02 -0.0416667 0
0.0166667 -0.0416667 0
0.0133333 -0.0416667 0
0.01 -0.0416667 0
0.00666667 -0.0416667 0
0.00333333 -0.0416667 0
0 -0.0416667 0
0.1 -0.045 0
0.0966667 -0.045 0
0.0933333 -0.045 0
0.09 -0.045 0
0.0866667 -0.045 0
0.0833333 -0.045 0
0.08 -0.045 0
0.0766667 -0.045 0
0.0733333 -0.045 0
0.07 -0.045 0
0.0666667 -0.045 0
0.0633333 -0.045 0
0.06 -0.045 0
0.0566667 -0.045 0
0.0533333 -0.045 0
0.05 -0.045 0
0.0466667 -0.045 0
0.0433333 -0.045 0
0.04 -0.045 0
0.0366667 -0.045 0
0.0333333 -0.045 0
0.03 -0.045 0
0.0266667 -0.045 0
0.0233333 -0.045 0
0.02 -0.045 0
0.0166667 -0.045 0
0.0133333 -0.045 0
0.01 -0.045 0
0.00666667 -0.045 0
0.00333333 -0.045 0
0 -0.045 0
0.1 -0.0483333 0
0.0966667 -0.0483333 0
0.0933333 -0.0483333 0
0.09 -0.0483333 0
0.0866667 -0.0483333 0
[...]
POINT_DATA 961
SCALARS Temp float 1
LOOKUP_TABLE default
750.133867
732.650377
716.214655
700.862443
686.626385
673.536088
661.617934
650.895380
641.388832
633.115950
626.091623
620.328170
615.835496
612.621145
610.690428
610.046507
610.690429
612.621147
615.835502
620.328178
626.091619
633.115959
641.388847
650.895386
661.617954
673.536090
686.626403
700.862448
716.214677
732.650427
750.133906
732.650403
714.487432
697.412949
681.464091
666.674766
653.075730
640.694392
629.555119
619.679110
611.084712
603.787392
597.799950
593.132673
589.793400
587.787648
587.118701
587.787649
589.793402
593.132679
597.799958
603.787388
611.084721
619.679125
629.555125
640.694413
653.075732
666.674784
681.464096
697.412971
714.487475
732.650428
716.214660
697.412932
679.737970
663.228220
647.918782
633.841493
621.024726
609.493704
599.270373
590.373726
582.819772
576.621761
571.790344
568.333635
566.257343
565.564871
566.257344
568.333636
571.790351
576.621770
582.819768
590.373735
599.270389
609.493711
621.024747
633.841494
647.918800
663.228223
679.737989
697.412971
716.214679
700.862433
681.464059
663.228205
646.194539
630.399275
615.875260
602.651768
590.754823
580.207066
571.028092
563.234421
556.839723
551.854985
548.288580
546.146400
545.431952
546.146400
548.288582
551.854992
556.839732
563.234417
571.028101
580.207081
590.754829
602.651789
615.875261
630.399292
646.194540
663.228222
681.464095
700.862448
686.626391
666.674749
647.918784
630.399293
614.153524
599.215262
585.614614
573.378348
562.529750
553.088976
545.073015
538.495928
533.369016
529.700890
527.497610
526.762785
527.497611
529.700891
533.369022
538.495937
545.073010
553.088985
562.529766
573.378354
585.614635
599.215262
614.153541
630.399293
647.918799
666.674784
686.626403
673.536083
653.075702
633.841483
615.875267
599.215250
583.896078
569.948628
557.400348
546.275120
536.593614
528.373252
521.628453
516.370808
512.609147
510.349685
509.596123
510.349686
512.609149
516.370815
521.628462
528.373247
536.593623
546.275136
557.400353
569.948648
583.896077
599.215266
615.875265
633.841497
653.075735
673.536094
661.617945
640.694380
621.024734
602.651793
585.614620
569.948647
555.685447
542.853092
531.476003
521.575320
513.168858
506.271365
500.894693
497.047872
494.737258
493.966635
494.737258
497.047873
500.894699
506.271374
513.168853
521.575329
531.476020
542.853097
555.685467
569.948645
585.614636
602.651790
621.024746
640.694412
661.617955
650.895382
629.555096
609.493702
590.754837
573.378343
557.400356
542.853080
529.765145
518.161461
508.063586
499.489692
492.454821
486.971061
483.047622
480.690987
479.905016
480.690987
483.047623
486.971068
492.454830
499.489687
508.063595
518.161477
529.765150
542.853100
557.400353
573.378358
590.754833
609.493714
629.555128
650.895391
641.388843
619.679096
599.270381
580.207091
562.529756
546.275140
531.476003
518.161473
506.356889
496.084184
487.361846
480.205176
474.626471
470.635103
468.237666
467.438087
468.237666
470.635105
474.626478
480.205185
487.361840
496.084193
506.356905
518.161477
531.476023
546.275136
562.529771
580.207086
599.270392
619.679128
641.388851
633.115951
611.084688
590.373723
571.028106
553.088970
536.593621
521.575307
508.063585
496.084172
485.659324
476.807804
469.545139
463.883811
459.833328
457.400383
456.588962
457.400384
459.833329
463.883818
469.545149
476.807798
485.659333
496.084188
508.063589
521.575328
536.593618
553.088985
571.028101
590.373733
611.084719
633.115959
626.091616
603.787360
582.819761
563.234427
545.073001
528.373251
513.168837
499.489683
487.361825
476.807795
467.846589
460.493926
454.762443
450.661767
448.198673
447.377196
448.198673
450.661768
454.762450
460.493936
467.846582
476.807804
487.361841
499.489687
513.168857
528.373247
545.073015
563.234422
582.819771
603.787392
626.091624
620.328173
597.799927
576.621760
556.839740
538.495924
521.628464
506.271355
492.454824
480.205166
469.545142
460.493938
453.067432
447.278387
443.136528
440.648696
439.818969
440.648697
443.136529
447.278394
453.067442
460.493932
469.545151
480.205182
492.454828
506.271376
521.628460
538.495939
556.839734
576.621771
597.799959
620.328181
615.835498
593.132649
571.790342
551.855001
533.369011
516.370818
500.894681
486.971062
474.626460
463.883813
454.762454
447.278386
441.444470
437.270507
434.763393
433.927235
434.763394
437.270509
441.444478
447.278396
454.762448
463.883822
474.626477
486.971066
500.894702
516.370814
533.369026
551.854995
571.790353
593.132681
615.835505
612.621144
589.793373
568.333629
548.288592
529.700881
512.609153
497.047856
483.047619
470.635088
459.833326
450.661774
443.136522
437.270503
433.073571
430.552660
429.711900
430.552660
433.073572
437.270510
443.136532
450.661767
459.833335
470.635104
483.047623
497.047877
512.609149
529.700896
548.288586
568.333640
589.793405
612.621151
610.690427
587.787621
566.257338
546.146412
527.497602
510.349691
494.737242
480.690984
468.237651
457.400381
448.198680
440.648691
434.763389
430.552660
428.023463
427.179939
428.023463
430.552662
434.763396
440.648701
448.198674
457.400391
468.237668
480.690989
494.737264
510.349687
527.497617
546.146407
566.257349
587.787653
610.690435
610.046506
587.118674
565.564866
545.431965
526.762777
509.596129
493.966620
479.905014
467.438072
456.588960
447.377204
439.818965
433.927231
429.711902
427.179940
426.335495
427.179941
429.711903
433.927239
439.818975
447.377198
456.588970
467.438090
479.905019
493.966642
509.596126
526.762793
545.431960
565.564877
587.118708
610.046514
610.690427
587.787620
566.257338
546.146412
527.497602
510.349691
494.737242
480.690984
468.237651
457.400381
448.198680
440.648691
434.763389
430.552661
428.023463
427.179940
428.023464
430.552662
434.763397
440.648702
448.198675
457.400391
468.237669
480.690990
494.737265
510.349688
527.497618
546.146408
566.257350
587.787654
610.690436
612.621143
589.793372
568.333629
548.288592
529.700881
512.609153
497.047856
483.047619
470.635088
459.833326
450.661774
443.136522
437.270503
433.073571
430.552661
429.711901
430.552661
433.073573
437.270511
443.136533
450.661769
459.833336
470.635106
483.047625
497.047879
512.609151
529.700898
548.288588
568.333642
589.793407
612.621153
615.835498
593.132649
571.790342
551.855001
533.369011
516.370817
500.894681
486.971062
474.626460
463.883813
454.762455
447.278387
441.444471
437.270509
434.763394
433.927236
434.763395
437.270510
441.444480
447.278398
454.762450
463.883824
474.626479
486.971069
500.894705
516.370817
533.369029
551.854998
571.790356
593.132684
615.835508
620.328173
597.799927
576.621760
556.839739
538.495924
521.628463
506.271355
492.454824
480.205166
469.545143
460.493939
453.067433
447.278389
443.136529
440.648698
439.818971
440.648699
443.136531
447.278397
453.067445
460.493935
469.545155
480.205186
492.454831
506.271380
521.628464
538.495943
556.839738
576.621775
597.799963
620.328185
626.091619
603.787363
582.819764
563.234431
545.073004
528.373255
513.168841
499.489688
487.361830
476.807800
467.846594
460.493932
454.762449
450.661774
448.198680
447.377203
448.198681
450.661776
454.762458
460.493944
467.846591
476.807813
487.361850
499.489696
513.168867
528.373256
545.073025
563.234431
582.819781
603.787401
626.091633
633.115945
611.084682
590.373717
571.028101
553.088964
536.593616
521.575302
508.063580
496.084167
485.659319
476.807800
469.545135
463.883807
459.833325
457.400380
456.588959
457.400381
459.833327
463.883816
469.545148
476.807797
485.659332
496.084188
508.063590
521.575328
536.593619
553.088986
571.028103
590.373735
611.084722
633.115961
641.388846
619.679100
599.270385
580.207095
562.529760
546.275145
531.476008
518.161479
506.356896
496.084191
487.361854
480.205184
474.626480
470.635112
468.237675
467.438097
468.237677
470.635115
474.626489
480.205197
487.361852
496.084205
506.356917
518.161490
531.476036
546.275149
562.529784
580.207099
599.270405
619.679141
641.388864
650.895374
629.555088
609.493693
590.754829
573.378335
557.400348
542.853073
529.765138
518.161454
508.063580
499.489687
492.454816
486.971056
483.047618
480.690983
479.905012
480.690984
483.047621
486.971066
492.454829
499.489686
508.063594
518.161477
529.765151
542.853102
557.400355
573.378360
590.754836
609.493717
629.555131
650.895394
661.617952
640.694387
621.024741
602.651801
585.614629
569.948657
555.685458
542.853103
531.476016
521.575333
513.168873
506.271380
500.894708
497.047888
494.737274
493.966652
494.737276
497.047891
500.894718
506.271393
513.168872
521.575348
531.476040
542.853117
555.685488
569.948666
585.614657
602.651812
621.024768
640.694433
661.617976
673.536078
653.075697
633.841480
615.875264
599.215247
583.896076
569.948627
557.400348
546.275121
536.593615
528.373254
521.628455
516.370811
512.609151
510.349689
509.596127
510.349691
512.609154
516.370821
521.628469
528.373254
536.593631
546.275145
557.400363
569.948658
583.896088
599.215277
615.875277
633.841510
653.075748
673.536106
686.626374
666.674732
647.918767
630.399276
614.153508
599.215247
585.614600
573.378334
562.529737
553.088963
545.073003
538.495916
533.369004
529.700879
527.497600
526.762776
527.497602
529.700883
533.369015
538.495930
545.073004
553.088980
562.529762
573.378350
585.614633
599.215260
614.153541
630.399294
647.918801
666.674787
686.626407
700.862430
681.464056
663.228203
646.194539
630.399276
615.875263
602.651772
590.754828
580.207072
571.028099
563.234429
556.839731
551.854994
548.288590
546.146410
545.431963
546.146412
548.288594
551.855005
556.839745
563.234431
571.028116
580.207097
590.754845
602.651806
615.875279
630.399311
646.194561
663.228244
681.464117
700.862470
716.214640
697.412912
679.737951
663.228203
647.918766
633.841479
621.024713
609.493692
599.270362
590.373715
582.819762
576.621752
571.790335
568.333626
566.257336
565.564864
566.257337
568.333630
571.790345
576.621765
582.819764
590.373732
599.270387
609.493710
621.024747
633.841496
647.918804
663.228229
679.737998
697.412982
716.214691
732.650400
714.487430
697.412951
681.464097
666.674774
653.075741
640.694405
629.555133
619.679125
611.084728
603.787409
597.799968
593.132692
589.793420
587.787668
587.118722
587.787670
589.793424
593.132702
597.799981
603.787412
611.084745
619.679150
629.555151
640.694439
653.075759
666.674813
681.464126
697.413004
714.487513
732.650472
750.133835
732.650352
716.214640
700.862431
686.626375
673.536080
661.617928
650.895375
641.388828
633.115947
626.091620
620.328168
615.835494
612.621144
610.690428
610.046507
610.690429
612.621148
615.835504
620.328181
626.091622
633.115963
641.388852
650.895393
661.617962
673.536098
686.626413
700.862461
716.214694
732.650449
750.133942
