# vtk DataFile Version 2.0
Unstructured Grid Example
ASCII
DATASET UNSTRUCTURED_GRID

POINTS 961 float
0.1 0.005 0
0.0966667 0.005 0
0.0933333 0.005 0
0.09 0.005 0
0.0866667 0.005 0
0.0833333 0.005 0
0.08 0.005 0
0.0766667 0.005 0
0.0733333 0.005 0
0.07 0.005 0
0.0666667 0.005 0
0.0633333 0.005 0
0.06 0.005 0
0.0566667 0.005 0
0.0533333 0.005 0
0.05 0.005 0
0.0466667 0.005 0
0.0433333 0.005 0
0.04 0.005 0
0.0366667 0.005 0
0.0333333 0.005 0
0.03 0.005 0
0.0266667 0.005 0
0.0233333 0.005 0
0.02 0.005 0
0.0166667 0.005 0
0.0133333 0.005 0
0.01 0.005 0
0.00666667 0.005 0
0.00333333 0.005 0
0 0.005 0
0.1 0.00166667 0
0.0966667 0.00166667 0
0.0933333 0.00166667 0
0.09 0.00166667 0
0.0866667 0.00166667 0
0.0833333 0.00166667 0
0.08 0.00166667 0
0.0766667 0.00166667 0
0.0733333 0.00166667 0
0.07 0.00166667 0
0.0666667 0.00166667 0
0.0633333 0.00166667 0
0.06 0.00166667 0
0.0566667 0.00166667 0
0.0533333 0.00166667 0
0.05 0.00166667 0
0.0466667 0.00166667 0
0.0433333 0.00166667 0
0.04 0.00166667 0
0.0366667 0.00166667 0
0.0333333 0.00166667 0
0.03 0.00166667 0
0.0266667 0.00166667 0
0.0233333 0.00166667 0
0.02 0.00166667 0
0.0166667 0.00166667 0
0.0133333 0.00166667 0
0.01 0.00166667 0
0.00666667 0.00166667 0
0.00333333 0.00166667 0
0 0.00166667 0
0.1 -0.00166667 0
0.0966667 -0.00166667 0
0.0933333 -0.00166667 0
0.09 -0.00166667 0
0.0866667 -0.00166667 0
0.0833333 -0.00166667 0
0.08 -0.00166667 0
0.0766667 -0.00166667 0
0.0733333 -0.00166667 0
0.07 -0.00166667 0
0.0666667 -0.00166667 0
0.0633333 -0.00166667 0
0.06 -0.00166667 0
0.0566667 -0.00166667 0
0.0533333 -0.00166667 0
0.05 -0.00166667 0
0.0466667 -0.00166667 0
0.0433333 -0.00166667 0
0.04 -0.00166667 0
0.0366667 -0.00166667 0
0.0333333 -0.00166667 0
0.03 -0.00166667 0
0.0266667 -0.00166667 0
0.0233333 -0.00166667 0
0.02 -0.00166667 0
0.0166667 -0.00166667 0
0.0133333 -0.00166667 0
0.01 -0.00166667 0
0.00666667 -0.00166667 0
0.00333333 -0.00166667 0
0 -0.00166667 0
0.1 -0.005 0
0.0966667 -0.005 0
0.0933333 -0.005 0
0.09 -0.005 0
0.0866667 -0.005 0
0.0833333 -0.005 0
0.08 -0.005 0
0.0766667 -0.005 0
0.0733333 -0.005 0
0.07 -0.005 0
0.0666667 -0.005 0
0.0633333 -0.005 0
0.06 -0.005 0
0.0566667 -0.005 0
0.0533333 -0.005 0
0.05 -0.005 0
0.0466667 -0.005 0
0.0433333 -0.005 0
0.04 -0.005 0
0.0366667 -0.005 0
0.0333333 -0.005 0
0.03 -0.005 0
0.0266667 -0.005 0
0.0233333 -0.005 0
0.02 -0.005 0
0.0166667 -0.005 0
0.0133333 -0.005 0
0.01 -0.005 0
0.00666667 -0.005 0
0.00333333 -0.005 0
0 -0.005 0
0.1 -0.00833333 0
0.0966667 -0.00833333 0
0.0933333 -0.00833333 0
0.09 -0.00833333 0
0.0866667 -0.00833333 0
0.0833333 -0.00833333 0
0.08 -0.00833333 0
0.0766667 -0.00833333 0
0.0733333 -0.00833333 0
0.07 -0.00833333 0
0.0666667 -0.00833333 0
0.0633333 -0.00833333 0
0.06 -0.00833333 0
0.0566667 -0.00833333 0
0.0533333 -0.00833333 0
0.05 -0.00833333 0
0.0466667 -0.00833333 0
0.0433333 -0.00833333 0
0.04 -0.00833333 0
0.0366667 -0.00833333 0
0.0333333 -0.00833333 0
0.03 -0.00833333 0
0.0266667 -0.00833333 0
0.0233333 -0.00833333 0
0.02 -0.00833333 0
0.0166667 -0.00833333 0
0.0133333 -0.00833333 0
0.01 -0.00833333 0
0.00666667 -0.00833333 0
0.00333333 -0.00833333 0
0 -0.00833333 0
0.1 -0.0116667 0
0.0966667 -0.0116667 0
0.0933333 -0.0116667 0
0.09 -0.0116667 0
0.0866667 -0.0116667 0
0.0833333 -0.0116667 0
0.08 -0.0116667 0
0.0766667 -0.0116667 0
0.0733333 -0.0116667 0
0.07 -0.0116667 0
0.0666667 -0.0116667 0
0.0633333 -0.0116667 0
0.06 -0.0116667 0
0.0566667 -0.0116667 0
0.0533333 -0.0116667 0
0.05 -0.0116667 0
0.0466667 -0.0116667 0
0.0433333 -0.0116667 0
0.04 -0.0116667 0
0.0366667 -0.0116667 0
0.0333333 -0.0116667 0
0.03 -0.0116667 0
0.0266667 -0.0116667 0
0.0233333 -0.0116667 0
0.02 -0.0116667 0
0.0166667 -0.0116667 0
0.0133333 -0.0116667 0
0.01 -0.0116667 0
0.00666667 -0.0116667 0
0.00333333 -0.0116667 0
0 -0.0116667 0
0.1 -0.015 0
0.0966667 -0.015 0
0.0933333 -0.015 0
0.09 -0.015 0
0.0866667 -0.015 0
0.0833333 -0.015 0
0.08 -0.015 0
0.0766667 -0.015 0
0.0733333 -0.015 0
0.07 -0.015 0
0.0666667 -0.015 0
0.0633333 -0.015 0
0.06 -0.015 0
0.0566667 -0.015 0
0.0533333 -0.015 0
0.05 -0.015 0
0.0466667 -0.015 0
0.0433333 -0.015 0
0.04 -0.015 0
0.0366667 -0.015 0
0.0333333 -0.015 0
0.03 -0.015 0
0.0266667 -0.015 0
0.0233333 -0.015 0
0.02 -0.015 0
0.0166667 -0.015 0
0.0133333 -0.015 0
0.01 -0.015 0
0.00666667 -0.015 0
0.00333333 -0.015 0
0 -0.015 0
0.1 -0.0183333 0
0.0966667 -0.0183333 0
0.0933333 -0.0183333 0
0.09 -0.0183333 0
0.0866667 -0.0183333 0
0.0833333 -0.0183333 0
0.08 -0.0183333 0
0.0766667 -0.0183333 0
0.0733333 -0.0183333 0
0.07 -0.0183333 0
0.0666667 -0.0183333 0
0.0633333 -0.0183333 0
0.06 -0.0183333 0
0.0566667 -0.0183333 0
0.0533333 -0.0183333 0
0.05 -0.0183333 0
0.0466667 -0.0183333 0
0.0433333 -0.0183333 0
0.04 -0.0183333 0
0.0366667 -0.0183333 0
0.0333333 -0.0183333 0
0.03 -0.0183333 0
0.0266667 -0.0183333 0
0.0233333 -0.0183333 0
0.02 -0.0183333 0
0.0166667 -0.0183333 0
0.0133333 -0.0183333 0
0.01 -0.0183333 0
0.00666667 -0.0183333 0
0.00333333 -0.0183333 0
0 -0.0183333 0
0.1 -0.0216667 0
0.0966667 -0.0216667 0
0.0933333 -0.0216667 0
0.09 -0.0216667 0
0.0866667 -0.0216667 0
0.0833333 -0.0216667 0
0.08 -0.0216667 0
0.0766667 -0.0216667 0
0.0733333 -0.0216667 0
0.07 -0.0216667 0
0.0666667 -0.0216667 0
0.0633333 -0.0216667 0
0.06 -0.0216667 0
0.0566667 -0.0216667 0
0.0533333 -0.0216667 0
0.05 -0.0216667 0
0.0466667 -0.0216667 0
0.0433333 -0.0216667 0
0.04 -0.0216667 0
0.0366667 -0.0216667 0
0.0333333 -0.0216667 0
0.03 -0.0216667 0
0.0266667 -0.0216667 0
0.0233333 -0.0216667 0
0.02 -0.0216667 0
0.0166667 -0.0216667 0
0.0133333 -0.0216667 0
0.01 -0.0216667 0
0.00666667 -0.0216667 0
0.00333333 -0.0216667 0
0 -0.0216667 0
0.1 -0.025 0
0.0966667 -0.025 0
0.0933333 -0.025 0
0.09 -0.025 0
0.0866667 -0.025 0
0.0833333 -0.025 0
0.08 -0.025 0
0.0766667 -0.025 0
0.0733333 -0.025 0
0.07 -0.025 0
0.0666667 -0.025 0
0.0633333 -0.025 0
0.06 -0.025 0
0.0566667 -0.025 0
0.0533333 -0.025 0
0.05 -0.025 0
0.0466667 -0.025 0
0.0433333 -0.025 0
0.04 -0.025 0
0.0366667 -0.025 0
0.0333333 -0.025 0
0.03 -0.025 0
0.0266667 -0.025 0
0.0233333 -0.025 0
0.02 -0.025 0
0.0166667 -0.025 0
0.0133333 -0.025 0
0.01 -0.025 0
0.00666667 -0.025 0
0.00333333 -0.025 0
0 -0.025 0
0.1 -0.0283333 0
0.0966667 -0.0283333 0
0.0933333 -0.0283333 0
0.09 -0.0283333 0
0.0866667 -0.0283333 0
0.0833333 -0.0283333 0
0.08 -0.0283333 0
0.0766667 -0.0283333 0
0.0733333 -0.0283333 0
0.07 -0.0283333 0
0.0666667 -0.0283333 0
0.0633333 -0.0283333 0
0.06 -0.0283333 0
0.0566667 -0.0283333 0
0.0533333 -0.0283333 0
0.05 -0.0283333 0
0.0466667 -0.0283333 0
0.0433333 -0.0283333 0
0.04 -0.0283333 0
0.0366667 -0.0283333 0
0.0333333 -0.0283333 0
0.03 -0.0283333 0
0.0266667 -0.0283333 0
0.0233333 -0.0283333 0
0.02 -0.0283333 0
0.0166667 -0.0283333 0
0.0133333 -0.0283333 0
0.01 -0.0283333 0
0.00666667 -0.0283333 0
0.00333333 -0.0283333 0
0 -0.0283333 0
0.1 -0.0316667 0
0.0966667 -0.0316667 0
0.0933333 -0.0316667 0
0.09 -0.0316667 0
0.0866667 -0.0316667 0
0.0833333 -0.0316667 0
0.08 -0.0316667 0
0.0766667 -0.0316667 0
0.0733333 -0.0316667 0
0.07 -0.0316667 0
0.0666667 -0.0316667 0
0.0633333 -0.0316667 0
0.06 -0.0316667 0
0.0566667 -0.0316667 0
0.0533333 -0.0316667 0
0.05 -0.0316667 0
0.0466667 -0.0316667 0
0.0433333 -0.0316667 0
0.04 -0.0316667 0
0.0366667 -0.0316667 0
0.0333333 -0.0316667 0
0.03 -0.0316667 0
0.0266667 -0.0316667 0
0.0233333 -0.0316667 0
0.02 -0.0316667 0
0.0166667 -0.0316667 0
0.0133333 -0.0316667 0
0.01 -0.0316667 0
0.00666667 -0.0316667 0
0.00333333 -0.0316667 0
0 -0.0316667 0
0.1 -0.035 0
0.0966667 -0.035 0
0.0933333 -0.035 0
0.09 -0.035 0
0.0866667 -0.035 0
0.0833333 -0.035 0
0.08 -0.035 0
0.0766667 -0.035 0
0.0733333 -0.035 0
0.07 -0.035 0
0.0666667 -0.035 0
0.0633333 -0.035 0
0.06 -0.035 0
0.0566667 -0.035 0
0.0533333 -0.035 0
0.05 -0.035 0
0.0466667 -0.035 0
0.0433333 -0.035 0
0.04 -0.035 0
0.0366667 -0.035 0
0.0333333 -0.035 0
0.03 -0.035 0
0.0266667 -0.035 0
0.0233333 -0.035 0
0.02 -0.035 0
0.0166667 -0.035 0
0.0133333 -0.035 0
0.01 -0.035 0
0.00666667 -0.035 0
0.00333333 -0.035 0
0 -0.035 0
0.1 -0.0383333 0
0.0966667 -0.0383333 0
0.0933333 -0.0383333 0
0.09 -0.0383333 0
0.0866667 -0.0383333 0
0.0833333 -0.0383333 0
0.08 -0.0383333 0
0.0766667 -0.0383333 0
0.0733333 -0.0383333 0
0.07 -0.0383333 0
0.0666667 -0.0383333 0
0.0633333 -0.0383333 0
0.06 -0.0383333 0
0.0566667 -0.0383333 0
0.0533333 -0.0383333 0
0.05 -0.0383333 0
0.0466667 -0.0383333 0
0.0433333 -0.0383333 0
0.04 -0.0383333 0
0.0366667 -0.0383333 0
0.0333333 -0.0383333 0
0.03 -0.0383333 0
0.0266667 -0.0383333 0
0.0233333 -0.0383333 0
0.02 -0.0383333 0
0.0166667 -0.0383333 0
0.0133333 -0.0383333 0
0.01 -0.0383333 0
0.00666667 -0.0383333 0
0.00333333 -0.0383333 0
0 -0.0383333 0
0.1 -0.0416667 0
0.0966667 -0.0416667 0
0.0933333 -0.0416667 0
0.09 -0.0416667 0
0.0866667 -0.0416667 0
0.0833333 -0.0416667 0
0.08 -0.0416667 0
0.0766667 -0.0416667 0
0.0733333 -0.0416667 0
0.07 -0.0416667 0
0.0666667 -0.0416667 0
0.0633333 -0.0416667 0
0.06 -0.0416667 0
0.0566667 -0.0416667 0
0.0533333 -0.0416667 0
0.05 -0.0416667 0
0.0466667 -0.0416667 0
0.0433333 -0.0416667 0
0.04 -0.0416667 0
0.0366667 -0.0416667 0
0.0333333 -0.0416667 0
0.03 -0.0416667 0
0.0266667 -0.0416667 0
0.0233333 -0.0416667 0
0.02 -0.0416667 0
0.0166667 -0.0416667 0
0.0133333 -0.0416667 0
0.01 -0.0416667 0
0.00666667 -0.0416667 0
0.00333333 -0.0416667 0
0 -0.0416667 0
0.1 -0.045 0
0.0966667 -0.045 0
0.0933333 -0.045 0
0.09 -0.045 0
0.0866667 -0.045 0
0.0833333 -0.045 0
0.08 -0.045 0
0.0766667 -0.045 0
0.0733333 -0.045 0
0.07 -0.045 0
0.0666667 -0.045 0
0.0633333 -0.045 0
0.06 -0.045 0
0.0566667 -0.045 0
0.0533333 -0.045 0
0.05 -0.045 0
0.0466667 -0.045 0
0.0433333 -0.045 0
0.04 -0.045 0
0.0366667 -0.045 0
0.0333333 -0.045 0
0.03 -0.045 0
0.0266667 -0.045 0
0.0233333 -0.045 0
0.02 -0.045 0
0.0166667 -0.045 0
0.0133333 -0.045 0
0.01 -0.045 0
0.00666667 -0.045 0
0.00333333 -0.045 0
0 -0.045 0
0.1 -0.0483333 0
0.0966667 -0.0483333 0
0.0933333 -0.0483333 0
0.09 -0.0483333 0
0.0866667 -0.0483333 0
[...]
POINT_DATA 961
SCALARS Temp float 1
LOOKUP_TABLE default
640.045456
618.352171
598.100469
579.329719
562.068649
546.335991
532.141136
519.485635
508.364407
498.767584
490.682040
484.093174
478.986551
475.349275
473.171216
472.445934
473.171217
475.349276
478.986558
484.093183
490.682035
498.767593
508.364423
519.485641
532.141157
546.335992
562.068669
579.329723
598.100494
618.352230
640.045503
618.352204
595.818483
574.782188
555.284222
537.354418
521.012233
506.267424
493.121603
481.569494
471.600848
463.202030
456.357878
451.053397
447.275191
445.012742
444.259359
445.012743
447.275192
451.053403
456.357887
463.202025
471.600857
481.569510
493.121609
506.267446
521.012233
537.354438
555.284226
574.782213
595.818535
618.352232
598.100474
574.782167
553.013402
532.836510
514.282366
497.371105
482.112826
468.509203
456.554777
446.238950
437.547615
430.465086
424.975848
421.066045
418.724792
417.945167
418.724792
421.066046
424.975855
430.465095
437.547609
446.238959
456.554794
468.509208
482.112849
497.371104
514.282386
532.836512
553.013424
574.782213
598.100496
579.329707
555.284182
532.836492
512.030290
492.897417
475.458641
459.724379
445.696364
433.368974
422.731286
413.768761
406.465228
400.804699
396.772886
394.358569
393.554614
394.358570
396.772887
400.804705
406.465238
413.768754
422.731295
433.368991
445.696369
459.724402
475.458639
492.897436
512.030290
532.836511
555.284224
579.329723
562.068656
537.354397
514.282368
492.897440
473.232340
455.308421
439.136397
424.718056
412.047629
401.113898
391.901930
384.395114
378.577021
374.432976
371.951451
371.125116
371.951452
374.432977
378.577028
384.395123
391.901924
401.113907
412.047646
424.718060
439.136419
455.308418
473.232358
492.897437
514.282384
537.354437
562.068670
546.335985
521.012198
497.371093
475.458649
455.308406
436.942248
420.371163
405.596992
392.613835
381.410210
371.970824
364.278668
358.316918
354.070544
351.527741
350.680999
351.527741
354.070545
358.316925
364.278677
371.970817
381.410218
392.613852
405.596996
420.371185
436.942244
455.308423
475.458644
497.371108
521.012236
546.335996
532.141149
506.267408
482.112835
459.724409
439.136404
420.371185
403.439990
388.344710
375.079330
363.632129
353.987497
346.128066
340.036659
335.697927
333.099815
332.234655
333.099815
335.697928
340.036666
346.128076
353.987490
363.632138
375.079347
388.344714
403.440012
420.371180
439.136420
459.724403
482.112848
506.267445
532.141158
519.485637
493.121575
468.509200
445.696381
424.718049
405.597001
388.344696
372.963075
359.446019
347.781601
337.953928
329.945316
323.738273
319.317170
316.669729
315.788142
316.669729
319.317170
323.738281
329.945326
337.953921
347.781610
359.446036
372.963078
388.344718
405.596996
424.718065
445.696374
468.509211
493.121612
519.485645
508.364420
481.569477
456.554786
433.369004
412.047635
392.613858
375.079329
359.446033
345.707765
333.852416
323.863849
315.724101
309.415408
304.921894
302.231089
301.335063
302.231090
304.921895
309.415415
315.724111
323.863840
333.852425
345.707782
359.446036
375.079351
392.613851
412.047650
433.368995
456.554797
481.569513
508.364427
498.767586
471.600818
446.238946
422.731303
401.113891
381.410219
363.632114
347.781601
333.852402
321.832254
311.704807
303.451866
297.055429
292.499409
289.771172
288.862679
289.771172
292.499410
297.055436
303.451876
311.704799
321.832262
333.852418
347.781603
363.632136
381.410212
401.113905
422.731293
446.238956
471.600854
498.767592
490.682033
463.201992
437.547603
413.768769
391.901914
371.970824
353.987472
337.953918
323.863824
311.704797
301.460313
293.111977
286.641592
282.032894
279.273109
278.354111
279.273109
282.032895
286.641599
293.111987
301.460304
311.704805
323.863840
337.953920
353.987494
371.970816
391.901928
413.768759
437.547612
463.202027
490.682039
484.093178
456.357851
430.465085
406.465249
384.395110
364.278681
346.128055
329.945320
315.724090
303.451870
293.111992
284.685901
278.155241
273.503604
270.718103
269.790541
270.718103
273.503604
278.155248
284.685911
293.111983
303.451878
315.724107
329.945322
346.128076
364.278673
384.395124
406.465239
430.465094
456.357886
484.093184
478.986555
451.053368
424.975846
400.804719
378.577016
358.316930
340.036646
323.738276
309.415396
297.055431
286.641605
278.155239
271.577853
266.892929
264.087493
263.153293
264.087493
266.892930
271.577860
278.155249
286.641596
297.055440
309.415413
323.738278
340.036668
358.316922
378.577030
400.804708
424.975856
451.053404
478.986560
475.349274
447.275158
421.066039
396.772901
374.432966
354.070551
335.697909
319.317167
304.921877
292.499407
282.032902
273.503597
266.892924
262.184286
259.364649
258.425719
259.364649
262.184287
266.892931
273.503607
282.032893
292.499415
304.921894
319.317169
335.697931
354.070543
374.432980
396.772890
421.066048
447.275194
475.349279
473.171216
445.012710
418.724786
394.358586
371.951442
351.527748
333.099798
316.669727
302.231073
289.771170
279.273118
270.718097
264.087489
259.364650
256.536507
255.594744
256.536507
259.364650
264.087496
270.718108
279.273109
289.771179
302.231090
316.669729
333.099820
351.527741
371.951456
394.358575
418.724796
445.012746
473.171222
472.445934
444.259326
417.945161
393.554631
371.125107
350.681008
332.234639
315.788141
301.335047
288.862679
278.354121
269.790537
263.153289
258.425721
255.594745
254.652040
255.594746
258.425722
263.153297
269.790547
278.354112
288.862687
301.335064
315.788144
332.234661
350.681000
371.125122
393.554621
417.945172
444.259363
472.445940
473.171216
445.012710
418.724786
394.358585
371.951442
351.527748
333.099798
316.669727
302.231073
289.771170
279.273118
270.718098
264.087489
259.364650
256.536507
255.594745
256.536508
259.364651
264.087497
270.718108
279.273110
289.771179
302.231091
316.669730
333.099821
351.527742
371.951457
394.358576
418.724797
445.012747
473.171223
475.349273
447.275158
421.066038
396.772901
374.432966
354.070551
335.697909
319.317167
304.921877
292.499407
282.032903
273.503598
266.892924
262.184287
259.364649
258.425720
259.364650
262.184288
266.892932
273.503609
282.032895
292.499417
304.921895
319.317171
335.697933
354.070545
374.432982
396.772892
421.066050
447.275196
475.349281
478.986554
451.053368
424.975846
400.804718
378.577016
358.316930
340.036646
323.738276
309.415396
297.055432
286.641606
278.155240
271.577854
266.892930
264.087494
263.153294
264.087495
266.892931
271.577862
278.155251
286.641599
297.055442
309.415415
323.738281
340.036671
358.316925
378.577033
400.804711
424.975859
451.053407
478.986563
484.093178
456.357850
430.465084
406.465249
384.395110
364.278681
346.128055
329.945320
315.724091
303.451871
293.111993
284.685903
278.155242
273.503606
270.718105
269.790544
270.718106
273.503607
278.155251
284.685914
293.111986
303.451882
315.724111
329.945326
346.128081
364.278677
384.395128
406.465243
430.465099
456.357891
484.093188
490.682036
463.201995
437.547606
413.768773
391.901918
371.970828
353.987478
337.953924
323.863830
311.704803
301.460320
293.111984
286.641600
282.032902
279.273117
278.354119
279.273118
282.032904
286.641608
293.111996
301.460314
311.704815
323.863850
337.953931
353.987504
371.970826
391.901938
413.768769
437.547623
463.202037
490.682049
498.767579
471.600812
446.238940
422.731297
401.113885
381.410213
363.632108
347.781595
333.852396
321.832249
311.704803
303.451862
297.055425
292.499406
289.771168
288.862676
289.771169
292.499408
297.055434
303.451874
311.704798
321.832261
333.852418
347.781603
363.632136
381.410213
401.113907
422.731295
446.238958
471.600856
498.767594
508.364424
481.569481
456.554791
433.369009
412.047641
392.613864
375.079336
359.446040
345.707773
333.852425
323.863858
315.724111
309.415418
304.921905
302.231100
301.335074
302.231102
304.921907
309.415428
315.724124
323.863854
333.852438
345.707795
359.446050
375.079365
392.613866
412.047665
433.369010
456.554812
481.569527
508.364441
519.485628
493.121566
468.509190
445.696372
424.718040
405.596993
388.344688
372.963067
359.446012
347.781594
337.953922
329.945311
323.738268
319.317165
316.669724
315.788138
316.669725
319.317167
323.738278
329.945324
337.953919
347.781609
359.446035
372.963078
388.344719
405.596997
424.718067
445.696377
468.509215
493.121615
519.485648
532.141157
506.267417
482.112845
459.724419
439.136415
420.371197
403.440003
388.344725
375.079345
363.632145
353.987514
346.128084
340.036678
335.697946
333.099834
332.234675
333.099836
335.697949
340.036688
346.128098
353.987512
363.632160
375.079370
388.344738
403.440036
420.371205
439.136444
459.724427
482.112873
506.267470
532.141182
546.335980
521.012193
497.371089
475.458645
455.308403
436.942246
420.371162
405.596992
392.613836
381.410211
371.970826
364.278671
358.316922
354.070549
351.527745
350.681004
351.527747
354.070552
358.316932
364.278685
371.970825
381.410227
392.613862
405.597007
420.371196
436.942256
455.308436
475.458658
497.371122
521.012251
546.336010
562.068637
537.354377
514.282348
492.897420
473.232321
455.308403
439.136380
424.718039
412.047613
401.113883
391.901916
384.395100
378.577008
374.432963
371.951439
371.125104
371.951441
374.432967
378.577018
384.395114
391.901915
401.113900
412.047639
424.718055
439.136416
455.308416
473.232357
492.897438
514.282387
537.354440
562.068673
579.329703
555.284179
532.836491
512.030291
492.897420
475.458645
459.724385
445.696371
433.368982
422.731295
413.768771
406.465239
400.804710
396.772898
394.358582
393.554628
394.358584
396.772901
400.804721
406.465254
413.768771
422.731312
433.369009
445.696388
459.724422
475.458660
492.897459
512.030314
532.836536
555.284251
579.329749
598.100450
574.782143
553.013380
532.836490
514.282347
497.371088
482.112811
468.509188
456.554764
446.238937
437.547603
430.465074
424.975838
421.066035
418.724782
417.945158
418.724784
421.066038
424.975848
430.465089
437.547604
446.238955
456.554791
468.509207
482.112849
497.371106
514.282389
532.836518
553.013433
574.782226
598.100510
618.352200
595.818481
574.782191
555.284230
537.354429
521.012247
506.267440
493.121621
481.569513
471.600868
463.202052
456.357900
451.053420
447.275216
445.012767
444.259384
445.012769
447.275219
451.053430
456.357915
463.202053
471.600885
481.569540
493.121639
506.267478
521.012266
537.354473
555.284262
574.782253
595.818580
618.352286
640.045418
618.352141
598.100450
579.329705
562.068638
546.335982
532.141128
519.485629
508.364402
498.767580
490.682037
484.093172
478.986550
475.349274
473.171216
472.445934
473.171217
475.349277
478.986560
484.093186
490.682038
498.767597
508.364428
519.485647
532.141166
546.336002
562.068681
579.329738
598.100514
618.352258
640.045546
