# vtk DataFile Version 2.0
Unstructured Grid Example
ASCII
DATASET UNSTRUCTURED_GRID

POINTS 961 float
0.1 0.005 0
0.0966667 0.005 0
0.0933333 0.005 0
0.09 0.005 0
0.0866667 0.005 0
0.0833333 0.005 0
0.08 0.005 0
0.0766667 0.005 0
0.0733333 0.005 0
0.07 0.005 0
0.0666667 0.005 0
0.0633333 0.005 0
0.06 0.005 0
0.0566667 0.005 0
0.0533333 0.005 0
0.05 0.005 0
0.0466667 0.005 0
0.0433333 0.005 0
0.04 0.005 0
0.0366667 0.005 0
0.0333333 0.005 0
0.03 0.005 0
0.0266667 0.005 0
0.0233333 0.005 0
0.02 0.005 0
0.0166667 0.005 0
0.0133333 0.005 0
0.01 0.005 0
0.00666667 0.005 0
0.00333333 0.005 0
0 0.005 0
0.1 0.00166667 0
0.0966667 0.00166667 0
0.0933333 0.00166667 0
0.09 0.00166667 0
0.0866667 0.00166667 0
0.0833333 0.00166667 0
0.08 0.00166667 0
0.0766667 0.00166667 0
0.0733333 0.00166667 0
0.07 0.00166667 0
0.0666667 0.00166667 0
0.0633333 0.00166667 0
0.06 0.00166667 0
0.0566667 0.00166667 0
0.0533333 0.00166667 0
0.05 0.00166667 0
0.0466667 0.00166667 0
0.0433333 0.00166667 0
0.04 0.00166667 0
0.0366667 0.00166667 0
0.0333333 0.00166667 0
0.03 0.00166667 0
0.0266667 0.00166667 0
0.0233333 0.00166667 0
0.02 0.00166667 0
0.0166667 0.00166667 0
0.0133333 0.00166667 0
0.01 0.00166667 0
0.00666667 0.00166667 0
0.00333333 0.00166667 0
0 0.00166667 0
0.1 -0.00166667 0
0.0966667 -0.00166667 0
0.0933333 -0.00166667 0
0.09 -0.00166667 0
0.0866667 -0.00166667 0
0.0833333 -0.00166667 0
0.08 -0.00166667 0
0.0766667 -0.00166667 0
0.0733333 -0.00166667 0
0.07 -0.00166667 0
0.0666667 -0.00166667 0
0.0633333 -0.00166667 0
0.06 -0.00166667 0
0.0566667 -0.00166667 0
0.0533333 -0.00166667 0
0.05 -0.00166667 0
0.0466667 -0.00166667 0
0.0433333 -0.00166667 0
0.04 -0.00166667 0
0.0366667 -0.00166667 0
0.0333333 -0.00166667 0
0.03 -0.00166667 0
0.0266667 -0.00166667 0
0.0233333 -0.00166667 0
0.02 -0.00166667 0
0.0166667 -0.00166667 0
0.0133333 -0.00166667 0
0.01 -0.00166667 0
0.00666667 -0.00166667 0
0.00333333 -0.00166667 0
0 -0.00166667 0
0.1 -0.005 0
0.0966667 -0.005 0
0.0933333 -0.005 0
0.09 -0.005 0
0.0866667 -0.005 0
0.0833333 -0.005 0
0.08 -0.005 0
0.0766667 -0.005 0
0.0733333 -0.005 0
0.07 -0.005 0
0.0666667 -0.005 0
0.0633333 -0.005 0
0.06 -0.005 0
0.0566667 -0.005 0
0.0533333 -0.005 0
0.05 -0.005 0
0.0466667 -0.005 0
0.0433333 -0.005 0
0.04 -0.005 0
0.0366667 -0.005 0
0.0333333 -0.005 0
0.03 -0.005 0
0.0266667 -0.005 0
0.0233333 -0.005 0
0.02 -0.005 0
0.0166667 -0.005 0
0.0133333 -0.005 0
0.01 -0.005 0
0.00666667 -0.005 0
0.00333333 -0.005 0
0 -0.005 0
0.1 -0.00833333 0
0.0966667 -0.00833333 0
0.0933333 -0.00833333 0
0.09 -0.00833333 0
0.0866667 -0.00833333 0
0.0833333 -0.00833333 0
0.08 -0.00833333 0
0.0766667 -0.00833333 0
0.0733333 -0.00833333 0
0.07 -0.00833333 0
0.0666667 -0.00833333 0
0.0633333 -0.00833333 0
0.06 -0.00833333 0
0.0566667 -0.00833333 0
0.0533333 -0.00833333 0
0.05 -0.00833333 0
0.0466667 -0.00833333 0
0.0433333 -0.00833333 0
0.04 -0.00833333 0
0.0366667 -0.00833333 0
0.0333333 -0.00833333 0
0.03 -0.00833333 0
0.0266667 -0.00833333 0
0.0233333 -0.00833333 0
0.02 -0.00833333 0
0.0166667 -0.00833333 0
0.0133333 -0.00833333 0
0.01 -0.00833333 0
0.00666667 -0.00833333 0
0.00333333 -0.00833333 0
0 -0.00833333 0
0.1 -0.0116667 0
0.0966667 -0.0116667 0
0.0933333 -0.0116667 0
0.09 -0.0116667 0
0.0866667 -0.0116667 0
0.0833333 -0.0116667 0
0.08 -0.0116667 0
0.0766667 -0.0116667 0
0.0733333 -0.0116667 0
0.07 -0.0116667 0
0.0666667 -0.0116667 0
0.0633333 -0.0116667 0
0.06 -0.0116667 0
0.0566667 -0.0116667 0
0.0533333 -0.0116667 0
0.05 -0.0116667 0
0.0466667 -0.0116667 0
0.0433333 -0.0116667 0
0.04 -0.0116667 0
0.0366667 -0.0116667 0
0.0333333 -0.0116667 0
0.03 -0.0116667 0
0.0266667 -0.0116667 0
0.0233333 -0.0116667 0
0.02 -0.0116667 0
0.0166667 -0.0116667 0
0.0133333 -0.0116667 0
0.01 -0.0116667 0
0.00666667 -0.0116667 0
0.00333333 -0.0116667 0
0 -0.0116667 0
0.1 -0.015 0
0.0966667 -0.015 0
0.0933333 -0.015 0
0.09 -0.015 0
0.0866667 -0.015 0
0.0833333 -0.015 0
0.08 -0.015 0
0.0766667 -0.015 0
0.0733333 -0.015 0
0.07 -0.015 0
0.0666667 -0.015 0
0.0633333 -0.015 0
0.06 -0.015 0
0.0566667 -0.015 0
0.0533333 -0.015 0
0.05 -0.015 0
0.0466667 -0.015 0
0.0433333 -0.015 0
0.04 -0.015 0
0.0366667 -0.015 0
0.0333333 -0.015 0
0.03 -0.015 0
0.0266667 -0.015 0
0.0233333 -0.015 0
0.02 -0.015 0
0.0166667 -0.015 0
0.0133333 -0.015 0
0.01 -0.015 0
0.00666667 -0.015 0
0.00333333 -0.015 0
0 -0.015 0
0.1 -0.0183333 0
0.0966667 -0.0183333 0
0.0933333 -0.0183333 0
0.09 -0.0183333 0
0.0866667 -0.0183333 0
0.0833333 -0.0183333 0
0.08 -0.0183333 0
0.0766667 -0.0183333 0
0.0733333 -0.0183333 0
0.07 -0.0183333 0
0.0666667 -0.0183333 0
0.0633333 -0.0183333 0
0.06 -0.0183333 0
0.0566667 -0.0183333 0
0.0533333 -0.0183333 0
0.05 -0.0183333 0
0.0466667 -0.0183333 0
0.0433333 -0.0183333 0
0.04 -0.0183333 0
0.0366667 -0.0183333 0
0.0333333 -0.0183333 0
0.03 -0.0183333 0
0.0266667 -0.0183333 0
0.0233333 -0.0183333 0
0.02 -0.0183333 0
0.0166667 -0.0183333 0
0.0133333 -0.0183333 0
0.01 -0.0183333 0
0.00666667 -0.0183333 0
0.00333333 -0.0183333 0
0 -0.0183333 0
0.1 -0.0216667 0
0.0966667 -0.0216667 0
0.0933333 -0.0216667 0
0.09 -0.0216667 0
0.0866667 -0.0216667 0
0.0833333 -0.0216667 0
0.08 -0.0216667 0
0.0766667 -0.0216667 0
0.0733333 -0.0216667 0
0.07 -0.0216667 0
0.0666667 -0.0216667 0
0.0633333 -0.0216667 0
0.06 -0.0216667 0
0.0566667 -0.0216667 0
0.0533333 -0.0216667 0
0.05 -0.0216667 0
0.0466667 -0.0216667 0
0.0433333 -0.0216667 0
0.04 -0.0216667 0
0.0366667 -0.0216667 0
0.0333333 -0.0216667 0
0.03 -0.0216667 0
0.0266667 -0.0216667 0
0.0233333 -0.0216667 0
0.02 -0.0216667 0
0.0166667 -0.0216667 0
0.0133333 -0.0216667 0
0.01 -0.0216667 0
0.00666667 -0.0216667 0
0.00333333 -0.0216667 0
0 -0.0216667 0
0.1 -0.025 0
0.0966667 -0.025 0
0.0933333 -0.025 0
0.09 -0.025 0
0.0866667 -0.025 0
0.0833333 -0.025 0
0.08 -0.025 0
0.0766667 -0.025 0
0.0733333 -0.025 0
0.07 -0.025 0
0.0666667 -0.025 0
0.0633333 -0.025 0
0.06 -0.025 0
0.0566667 -0.025 0
0.0533333 -0.025 0
0.05 -0.025 0
0.0466667 -0.025 0
0.0433333 -0.025 0
0.04 -0.025 0
0.0366667 -0.025 0
0.0333333 -0.025 0
0.03 -0.025 0
0.0266667 -0.025 0
0.0233333 -0.025 0
0.02 -0.025 0
0.0166667 -0.025 0
0.0133333 -0.025 0
0.01 -0.025 0
0.00666667 -0.025 0
0.00333333 -0.025 0
0 -0.025 0
0.1 -0.0283333 0
0.0966667 -0.0283333 0
0.0933333 -0.0283333 0
0.09 -0.0283333 0
0.0866667 -0.0283333 0
0.0833333 -0.0283333 0
0.08 -0.0283333 0
0.0766667 -0.0283333 0
0.0733333 -0.0283333 0
0.07 -0.0283333 0
0.0666667 -0.0283333 0
0.0633333 -0.0283333 0
0.06 -0.0283333 0
0.0566667 -0.0283333 0
0.0533333 -0.0283333 0
0.05 -0.0283333 0
0.0466667 -0.0283333 0
0.0433333 -0.0283333 0
0.04 -0.0283333 0
0.0366667 -0.0283333 0
0.0333333 -0.0283333 0
0.03 -0.0283333 0
0.0266667 -0.0283333 0
0.0233333 -0.0283333 0
0.02 -0.0283333 0
0.0166667 -0.0283333 0
0.0133333 -0.0283333 0
0.01 -0.0283333 0
0.00666667 -0.0283333 0
0.00333333 -0.0283333 0
0 -0.0283333 0
0.1 -0.0316667 0
0.0966667 -0.0316667 0
0.0933333 -0.0316667 0
0.09 -0.0316667 0
0.0866667 -0.0316667 0
0.0833333 -0.0316667 0
0.08 -0.0316667 0
0.0766667 -0.0316667 0
0.0733333 -0.0316667 0
0.07 -0.0316667 0
0.0666667 -0.0316667 0
0.0633333 -0.0316667 0
0.06 -0.0316667 0
0.0566667 -0.0316667 0
0.0533333 -0.0316667 0
0.05 -0.0316667 0
0.0466667 -0.0316667 0
0.0433333 -0.0316667 0
0.04 -0.0316667 0
0.0366667 -0.0316667 0
0.0333333 -0.0316667 0
0.03 -0.0316667 0
0.0266667 -0.0316667 0
0.0233333 -0.0316667 0
0.02 -0.0316667 0
0.0166667 -0.0316667 0
0.0133333 -0.0316667 0
0.01 -0.0316667 0
0.00666667 -0.0316667 0
0.00333333 -0.0316667 0
0 -0.0316667 0
0.1 -0.035 0
0.0966667 -0.035 0
0.0933333 -0.035 0
0.09 -0.035 0
0.0866667 -0.035 0
0.0833333 -0.035 0
0.08 -0.035 0
0.0766667 -0.035 0
0.0733333 -0.035 0
0.07 -0.035 0
0.0666667 -0.035 0
0.0633333 -0.035 0
0.06 -0.035 0
0.0566667 -0.035 0
0.0533333 -0.035 0
0.05 -0.035 0
0.0466667 -0.035 0
0.0433333 -0.035 0
0.04 -0.035 0
0.0366667 -0.035 0
0.0333333 -0.035 0
0.03 -0.035 0
0.0266667 -0.035 0
0.0233333 -0.035 0
0.02 -0.035 0
0.0166667 -0.035 0
0.0133333 -0.035 0
0.01 -0.035 0
0.00666667 -0.035 0
0.00333333 -0.035 0
0 -0.035 0
0.1 -0.0383333 0
0.0966667 -0.0383333 0
0.0933333 -0.0383333 0
0.09 -0.0383333 0
0.0866667 -0.0383333 0
0.0833333 -0.0383333 0
0.08 -0.0383333 0
0.0766667 -0.0383333 0
0.0733333 -0.0383333 0
0.07 -0.0383333 0
0.0666667 -0.0383333 0
0.0633333 -0.0383333 0
0.06 -0.0383333 0
0.0566667 -0.0383333 0
0.0533333 -0.0383333 0
0.05 -0.0383333 0
0.0466667 -0.0383333 0
0.0433333 -0.0383333 0
0.04 -0.0383333 0
0.0366667 -0.0383333 0
0.0333333 -0.0383333 0
0.03 -0.0383333 0
0.0266667 -0.0383333 0
0.0233333 -0.0383333 0
0.02 -0.0383333 0
0.0166667 -0.0383333 0
0.0133333 -0.0383333 0
0.01 -0.0383333 0
0.00666667 -0.0383333 0
0.00333333 -0.0383333 0
0 -0.0383333 0
0.1 -0.0416667 0
0.0966667 -0.0416667 0
0.0933333 -0.0416667 0
0.09 -0.0416667 0
0.0866667 -0.0416667 0
0.0833333 -0.0416667 0
0.08 -0.0416667 0
0.0766667 -0.0416667 0
0.0733333 -0.0416667 0
0.07 -0.0416667 0
0.0666667 -0.0416667 0
0.0633333 -0.0416667 0
0.06 -0.0416667 0
0.0566667 -0.0416667 0
0.0533333 -0.0416667 0
0.05 -0.0416667 0
0.0466667 -0.0416667 0
0.0433333 -0.0416667 0
0.04 -0.0416667 0
0.0366667 -0.0416667 0
0.0333333 -0.0416667 0
0.03 -0.0416667 0
0.0266667 -0.0416667 0
0.0233333 -0.0416667 0
0.02 -0.0416667 0
0.0166667 -0.0416667 0
0.0133333 -0.0416667 0
0.01 -0.0416667 0
0.00666667 -0.0416667 0
0.00333333 -0.0416667 0
0 -0.0416667 0
0.1 -0.045 0
0.0966667 -0.045 0
0.0933333 -0.045 0
0.09 -0.045 0
0.0866667 -0.045 0
0.0833333 -0.045 0
0.08 -0.045 0
0.0766667 -0.045 0
0.0733333 -0.045 0
0.07 -0.045 0
0.0666667 -0.045 0
0.0633333 -0.045 0
0.06 -0.045 0
0.0566667 -0.045 0
0.0533333 -0.045 0
0.05 -0.045 0
0.0466667 -0.045 0
0.0433333 -0.045 0
0.04 -0.045 0
0.0366667 -0.045 0
0.0333333 -0.045 0
0.03 -0.045 0
0.0266667 -0.045 0
0.0233333 -0.045 0
0.02 -0.045 0
0.0166667 -0.045 0
0.0133333 -0.045 0
0.01 -0.045 0
0.00666667 -0.045 0
0.00333333 -0.045 0
0 -0.045 0
0.1 -0.0483333 0
0.0966667 -0.0483333 0
0.0933333 -0.0483333 0
0.09 -0.0483333 0
0.0866667 -0.0483333 0
[...]
POINT_DATA 961
SCALARS Temp float 1
LOOKUP_TABLE default
1100.247958
1096.369520
1092.720010
1089.307480
1086.139463
1083.222971
1080.564433
1078.169735
1076.044155
1074.192399
1072.618551
1071.326087
1070.317865
1069.596113
1069.162422
1069.017752
1069.162422
1069.596113
1070.317867
1071.326089
1072.618551
1074.192401
1076.044159
1078.169737
1080.564438
1083.222972
1086.139468
1089.307482
1092.720016
1096.369531
1100.247967
1096.369526
1092.340289
1088.548882
1085.003670
1081.712478
1078.682590
1075.920687
1073.432881
1071.224657
1069.300903
1067.665863
1066.323146
1065.275724
1064.525909
1064.075356
1063.925061
1064.075356
1064.525910
1065.275726
1066.323148
1067.665862
1069.300905
1071.224661
1073.432882
1075.920692
1078.682591
1081.712483
1085.003672
1088.548887
1092.340299
1096.369532
1092.720011
1088.548878
1084.623950
1080.953887
1077.546790
1074.410200
1071.551031
1068.975613
1066.689623
1064.698121
1063.005500
1061.615498
1060.531189
1059.754968
1059.288548
1059.132960
1059.288548
1059.754968
1060.531191
1061.615500
1063.005500
1064.698123
1066.689627
1068.975615
1071.551036
1074.410201
1077.546795
1080.953888
1084.623955
1088.548887
1092.720016
1089.307478
1085.003663
1080.953884
1077.167078
1073.651602
1070.415238
1067.465121
1064.807779
1062.449073
1060.394222
1058.647759
1057.213542
1056.094741
1055.293829
1054.812572
1054.652035
1054.812573
1055.293830
1056.094743
1057.213544
1058.647759
1060.394224
1062.449077
1064.807781
1067.465126
1070.415239
1073.651607
1077.167079
1080.953888
1085.003672
1089.307482
1086.139464
1081.712474
1077.546791
1073.651606
1070.035518
1066.706529
1063.671979
1060.938585
1058.512372
1056.398711
1054.602265
1053.127000
1051.976180
1051.152346
1050.657316
1050.492184
1050.657316
1051.152346
1051.976182
1053.127003
1054.602265
1056.398714
1058.512376
1060.938587
1063.671984
1066.706530
1070.035522
1073.651607
1077.546795
1081.712482
1086.139468
1083.222970
1078.682584
1074.410198
1070.415240
1066.706526
1063.292267
1060.179988
1057.376579
1054.888219
1052.720418
1050.877957
1049.364903
1048.184605
1047.339669
1046.831958
1046.662597
1046.831959
1047.339669
1048.184607
1049.364906
1050.877956
1052.720420
1054.888224
1057.376580
1060.179993
1063.292267
1066.706530
1070.415240
1074.410201
1078.682592
1083.222973
1080.564436
1075.920684
1071.551033
1067.465126
1063.671980
1060.179992
1056.996859
1054.129628
1051.584619
1049.367465
1047.483059
1045.935559
1044.728391
1043.864219
1043.344950
1043.171733
1043.344950
1043.864219
1044.728393
1045.935562
1047.483058
1049.367468
1051.584623
1054.129630
1056.996865
1060.179992
1063.671985
1067.465126
1071.551036
1075.920692
1080.564439
1078.169735
1073.432875
1068.975612
1064.807782
1060.938584
1057.376580
1054.129625
1051.204906
1048.608869
1046.347261
1044.425072
1042.846545
1041.615172
1040.733673
1040.203993
1040.027303
1040.203993
1040.733674
1041.615174
1042.846547
1044.425071
1046.347263
1048.608873
1051.204907
1054.129631
1057.376581
1060.938588
1064.807782
1068.975616
1073.432883
1078.169738
1076.044158
1071.224654
1066.689625
1062.449078
1058.512373
1054.888224
1051.584619
1048.608871
1045.967541
1043.666475
1041.710750
1040.104682
1038.851825
1037.954947
1037.416025
1037.236252
1037.416025
1037.954947
1038.851827
1040.104684
1041.710749
1043.666478
1045.967545
1048.608873
1051.584624
1054.888224
1058.512377
1062.449078
1066.689628
1071.224661
1076.044160
1074.192399
1069.300897
1064.698120
1060.394225
1056.398710
1052.720419
1049.367463
1046.347261
1043.666472
1041.331031
1039.346089
1037.716028
1036.444455
1035.534179
1034.987206
1034.804748
1034.987206
1035.534179
1036.444457
1037.716031
1039.346088
1041.331033
1043.666476
1046.347262
1049.367468
1052.720419
1056.398714
1060.394224
1064.698123
1069.300905
1074.192401
1072.618550
1067.665855
1063.005498
1058.647761
1054.602262
1050.877956
1047.483054
1044.425070
1041.710745
1039.346087
1037.336313
1035.685861
1034.398381
1033.476716
1032.922901
1032.738160
1032.922901
1033.476717
1034.398382
1035.685863
1037.336312
1039.346089
1041.710749
1044.425071
1047.483059
1050.877956
1054.602266
1058.647760
1063.005501
1067.665863
1072.618552
1071.326087
1066.323141
1061.615497
1057.213545
1053.126999
1049.364905
1045.935557
1042.846545
1040.104679
1037.716029
1035.685863
1034.018665
1032.718121
1031.787105
1031.227671
1031.041056
1031.227671
1031.787106
1032.718123
1034.018667
1035.685862
1037.716031
1040.104684
1042.846547
1045.935562
1049.364905
1053.127003
1057.213545
1061.615500
1066.323149
1071.326090
1070.317866
1065.275719
1060.531188
1056.094745
1051.976179
1048.184607
1044.728388
1041.615172
1038.851823
1036.444456
1034.398383
1032.718121
1031.407387
1030.469076
1029.905259
1029.717181
1029.905259
1030.469077
1031.407389
1032.718124
1034.398382
1036.444458
1038.851827
1041.615174
1044.728394
1048.184607
1051.976183
1056.094744
1060.531191
1065.275726
1070.317868
1069.596112
1064.525903
1059.754966
1055.293832
1051.152344
1047.339670
1043.864215
1040.733672
1037.954943
1035.534178
1033.476718
1031.787104
1030.469075
1029.525542
1028.958586
1028.769462
1028.958587
1029.525543
1030.469077
1031.787106
1033.476717
1035.534180
1037.954947
1040.733674
1043.864220
1047.339669
1051.152348
1055.293831
1059.754970
1064.525911
1069.596114
1069.162421
1064.075350
1059.288546
1054.812575
1050.657313
1046.831959
1043.344946
1040.203992
1037.416022
1034.987206
1032.922903
1031.227670
1029.905258
1028.958587
1028.389745
1028.199992
1028.389746
1028.958587
1029.905260
1031.227672
1032.922902
1034.987208
1037.416026
1040.203994
1043.344952
1046.831959
1050.657317
1054.812574
1059.288550
1064.075358
1069.162424
1069.017751
1063.925055
1059.132959
1054.652038
1050.492182
1046.662598
1043.171729
1040.027302
1037.236249
1034.804747
1032.738162
1031.041054
1029.717180
1028.769462
1028.199992
1028.010029
1028.199992
1028.769463
1029.717182
1031.041057
1032.738161
1034.804750
1037.236253
1040.027304
1043.171735
1046.662598
1050.492186
1054.652038
1059.132962
1063.925063
1069.017754
1069.162421
1064.075350
1059.288546
1054.812575
1050.657313
1046.831959
1043.344946
1040.203992
1037.416022
1034.987206
1032.922903
1031.227670
1029.905258
1028.958587
1028.389745
1028.199992
1028.389746
1028.958587
1029.905260
1031.227673
1032.922902
1034.987208
1037.416026
1040.203994
1043.344952
1046.831960
1050.657318
1054.812575
1059.288550
1064.075358
1069.162424
1069.596112
1064.525903
1059.754966
1055.293831
1051.152343
1047.339670
1043.864215
1040.733672
1037.954943
1035.534178
1033.476718
1031.787104
1030.469075
1029.525542
1028.958587
1028.769462
1028.958587
1029.525543
1030.469078
1031.787107
1033.476717
1035.534181
1037.954948
1040.733674
1043.864221
1047.339670
1051.152348
1055.293831
1059.754970
1064.525911
1069.596115
1070.317865
1065.275718
1060.531188
1056.094745
1051.976179
1048.184607
1044.728388
1041.615172
1038.851823
1036.444456
1034.398383
1032.718121
1031.407388
1030.469077
1029.905259
1029.717181
1029.905259
1030.469077
1031.407390
1032.718124
1034.398383
1036.444459
1038.851828
1041.615175
1044.728394
1048.184608
1051.976184
1056.094745
1060.531192
1065.275727
1070.317869
1071.326087
1066.323141
1061.615497
1057.213545
1053.126999
1049.364905
1045.935557
1042.846545
1040.104679
1037.716029
1035.685864
1034.018665
1032.718122
1031.787106
1031.227671
1031.041056
1031.227672
1031.787106
1032.718124
1034.018668
1035.685863
1037.716032
1040.104684
1042.846548
1045.935563
1049.364906
1053.127004
1057.213546
1061.615501
1066.323150
1071.326091
1072.618550
1067.665856
1063.005498
1058.647761
1054.602263
1050.877957
1047.483055
1044.425071
1041.710746
1039.346088
1037.336315
1035.685862
1034.398382
1033.476718
1032.922903
1032.738162
1032.922903
1033.476718
1034.398384
1035.685865
1037.336314
1039.346091
1041.710751
1044.425073
1047.483062
1050.877958
1054.602268
1058.647762
1063.005503
1067.665865
1072.618554
1074.192398
1069.300896
1064.698118
1060.394223
1056.398708
1052.720418
1049.367461
1046.347260
1043.666471
1041.331030
1039.346088
1037.716027
1036.444455
1035.534178
1034.987206
1034.804747
1034.987206
1035.534179
1036.444457
1037.716030
1039.346088
1041.331033
1043.666476
1046.347262
1049.367468
1052.720420
1056.398714
1060.394225
1064.698123
1069.300905
1074.192402
1076.044158
1071.224654
1066.689625
1062.449079
1058.512374
1054.888225
1051.584620
1048.608873
1045.967543
1043.666477
1041.710751
1040.104684
1038.851827
1037.954949
1037.416027
1037.236255
1037.416028
1037.954950
1038.851830
1040.104687
1041.710751
1043.666480
1045.967548
1048.608876
1051.584627
1054.888227
1058.512380
1062.449081
1066.689631
1071.224664
1076.044163
1078.169733
1073.432874
1068.975611
1064.807781
1060.938582
1057.376579
1054.129624
1051.204904
1048.608867
1046.347260
1044.425071
1042.846544
1041.615171
1040.733672
1040.203992
1040.027302
1040.203993
1040.733673
1041.615174
1042.846547
1044.425071
1046.347263
1048.608873
1051.204908
1054.129631
1057.376581
1060.938588
1064.807783
1068.975617
1073.432884
1078.169739
1080.564437
1075.920685
1071.551035
1067.465128
1063.671982
1060.179994
1056.996862
1054.129631
1051.584622
1049.367468
1047.483062
1045.935563
1044.728394
1043.864222
1043.344954
1043.171737
1043.344954
1043.864223
1044.728397
1045.935566
1047.483063
1049.367472
1051.584628
1054.129634
1056.996869
1060.179997
1063.671989
1067.465131
1071.551041
1075.920696
1080.564443
1083.222969
1078.682583
1074.410197
1070.415239
1066.706526
1063.292266
1060.179988
1057.376579
1054.888220
1052.720418
1050.877957
1049.364904
1048.184606
1047.339669
1046.831959
1046.662598
1046.831960
1047.339670
1048.184608
1049.364907
1050.877958
1052.720422
1054.888226
1057.376583
1060.179995
1063.292270
1066.706533
1070.415243
1074.410204
1078.682595
1083.222976
1086.139461
1081.712470
1077.546787
1073.651603
1070.035514
1066.706526
1063.671976
1060.938582
1058.512369
1056.398708
1054.602263
1053.126998
1051.976178
1051.152343
1050.657313
1050.492182
1050.657314
1051.152344
1051.976180
1053.127001
1054.602263
1056.398713
1058.512375
1060.938586
1063.671984
1066.706529
1070.035522
1073.651607
1077.546795
1081.712483
1086.139469
1089.307477
1085.003662
1080.953883
1077.167078
1073.651602
1070.415239
1067.465121
1064.807780
1062.449074
1060.394223
1058.647761
1057.213543
1056.094743
1055.293831
1054.812575
1054.652038
1054.812575
1055.293832
1056.094746
1057.213547
1058.647762
1060.394227
1062.449080
1064.807785
1067.465130
1070.415243
1073.651611
1077.167083
1080.953893
1085.003677
1089.307487
1092.720007
1088.548874
1084.623945
1080.953883
1077.546787
1074.410197
1071.551028
1068.975610
1066.689620
1064.698118
1063.005498
1061.615496
1060.531187
1059.754966
1059.288546
1059.132959
1059.288547
1059.754967
1060.531189
1061.615499
1063.005499
1064.698123
1066.689627
1068.975615
1071.551037
1074.410201
1077.546796
1080.953890
1084.623957
1088.548890
1092.720019
1096.369525
1092.340288
1088.548882
1085.003671
1081.712480
1078.682592
1075.920689
1073.432884
1071.224660
1069.300906
1067.665866
1066.323150
1065.275728
1064.525913
1064.075361
1063.925066
1064.075361
1064.525914
1065.275731
1066.323154
1067.665867
1069.300910
1071.224666
1073.432888
1075.920698
1078.682597
1081.712489
1085.003679
1088.548895
1092.340308
1096.369542
1100.247951
1096.369514
1092.720007
1089.307478
1086.139461
1083.222969
1080.564432
1078.169734
1076.044154
1074.192398
1072.618551
1071.326086
1070.317865
1069.596112
1069.162422
1069.017752
1069.162422
1069.596113
1070.317867
1071.326090
1072.618552
1074.192402
1076.044160
1078.169738
1080.564440
1083.222974
1086.139470
1089.307485
1092.720019
1096.369537
1100.247975
