# vtk DataFile Version 2.0
Unstructured Grid Example
ASCII
DATASET UNSTRUCTURED_GRID

POINTS 961 float
0.1 0.005 0
0.0966667 0.005 0
0.0933333 0.005 0
0.09 0.005 0
0.0866667 0.005 0
0.0833333 0.005 0
0.08 0.005 0
0.0766667 0.005 0
0.0733333 0.005 0
0.07 0.005 0
0.0666667 0.005 0
0.0633333 0.005 0
0.06 0.005 0
0.0566667 0.005 0
0.0533333 0.005 0
0.05 0.005 0
0.0466667 0.005 0
0.0433333 0.005 0
0.04 0.005 0
0.0366667 0.005 0
0.0333333 0.005 0
0.03 0.005 0
0.0266667 0.005 0
0.0233333 0.005 0
0.02 0.005 0
0.0166667 0.005 0
0.0133333 0.005 0
0.01 0.005 0
0.00666667 0.005 0
0.00333333 0.005 0
0 0.005 0
0.1 0.00166667 0
0.0966667 0.00166667 0
0.0933333 0.00166667 0
0.09 0.00166667 0
0.0866667 0.00166667 0
0.0833333 0.00166667 0
0.08 0.00166667 0
0.0766667 0.00166667 0
0.0733333 0.00166667 0
0.07 0.00166667 0
0.0666667 0.00166667 0
0.0633333 0.00166667 0
0.06 0.00166667 0
0.0566667 0.00166667 0
0.0533333 0.00166667 0
0.05 0.00166667 0
0.0466667 0.00166667 0
0.0433333 0.00166667 0
0.04 0.00166667 0
0.0366667 0.00166667 0
0.0333333 0.00166667 0
0.03 0.00166667 0
0.0266667 0.00166667 0
0.0233333 0.00166667 0
0.02 0.00166667 0
0.0166667 0.00166667 0
0.0133333 0.00166667 0
0.01 0.00166667 0
0.00666667 0.00166667 0
0.00333333 0.00166667 0
0 0.00166667 0
0.1 -0.00166667 0
0.0966667 -0.00166667 0
0.0933333 -0.00166667 0
0.09 -0.00166667 0
0.0866667 -0.00166667 0
0.0833333 -0.00166667 0
0.08 -0.00166667 0
0.0766667 -0.00166667 0
0.0733333 -0.00166667 0
0.07 -0.00166667 0
0.0666667 -0.00166667 0
0.0633333 -0.00166667 0
0.06 -0.00166667 0
0.0566667 -0.00166667 0
0.0533333 -0.00166667 0
0.05 -0.00166667 0
0.0466667 -0.00166667 0
0.0433333 -0.00166667 0
0.04 -0.00166667 0
0.0366667 -0.00166667 0
0.0333333 -0.00166667 0
0.03 -0.00166667 0
0.0266667 -0.00166667 0
0.0233333 -0.00166667 0
0.02 -0.00166667 0
0.0166667 -0.00166667 0
0.0133333 -0.00166667 0
0.01 -0.00166667 0
0.00666667 -0.00166667 0
0.00333333 -0.00166667 0
0 -0.00166667 0
0.1 -0.005 0
0.0966667 -0.005 0
0.0933333 -0.005 0
0.09 -0.005 0
0.0866667 -0.005 0
0.0833333 -0.005 0
0.08 -0.005 0
0.0766667 -0.005 0
0.0733333 -0.005 0
0.07 -0.005 0
0.0666667 -0.005 0
0.0633333 -0.005 0
0.06 -0.005 0
0.0566667 -0.005 0
0.0533333 -0.005 0
0.05 -0.005 0
0.0466667 -0.005 0
0.0433333 -0.005 0
0.04 -0.005 0
0.0366667 -0.005 0
0.0333333 -0.005 0
0.03 -0.005 0
0.0266667 -0.005 0
0.0233333 -0.005 0
0.02 -0.005 0
0.0166667 -0.005 0
0.0133333 -0.005 0
0.01 -0.005 0
0.00666667 -0.005 0
0.00333333 -0.005 0
0 -0.005 0
0.1 -0.00833333 0
0.0966667 -0.00833333 0
0.0933333 -0.00833333 0
0.09 -0.00833333 0
0.0866667 -0.00833333 0
0.0833333 -0.00833333 0
0.08 -0.00833333 0
0.0766667 -0.00833333 0
0.0733333 -0.00833333 0
0.07 -0.00833333 0
0.0666667 -0.00833333 0
0.0633333 -0.00833333 0
0.06 -0.00833333 0
0.0566667 -0.00833333 0
0.0533333 -0.00833333 0
0.05 -0.00833333 0
0.0466667 -0.00833333 0
0.0433333 -0.00833333 0
0.04 -0.00833333 0
0.0366667 -0.00833333 0
0.0333333 -0.00833333 0
0.03 -0.00833333 0
0.0266667 -0.00833333 0
0.0233333 -0.00833333 0
0.02 -0.00833333 0
0.0166667 -0.00833333 0
0.0133333 -0.00833333 0
0.01 -0.00833333 0
0.00666667 -0.00833333 0
0.00333333 -0.00833333 0
0 -0.00833333 0
0.1 -0.0116667 0
0.0966667 -0.0116667 0
0.0933333 -0.0116667 0
0.09 -0.0116667 0
0.0866667 -0.0116667 0
0.0833333 -0.0116667 0
0.08 -0.0116667 0
0.0766667 -0.0116667 0
0.0733333 -0.0116667 0
0.07 -0.0116667 0
0.0666667 -0.0116667 0
0.0633333 -0.0116667 0
0.06 -0.0116667 0
0.0566667 -0.0116667 0
0.0533333 -0.0116667 0
0.05 -0.0116667 0
0.0466667 -0.0116667 0
0.0433333 -0.0116667 0
0.04 -0.0116667 0
0.0366667 -0.0116667 0
0.0333333 -0.0116667 0
0.03 -0.0116667 0
0.0266667 -0.0116667 0
0.0233333 -0.0116667 0
0.02 -0.0116667 0
0.0166667 -0.0116667 0
0.0133333 -0.0116667 0
0.01 -0.0116667 0
0.00666667 -0.0116667 0
0.00333333 -0.0116667 0
0 -0.0116667 0
0.1 -0.015 0
0.0966667 -0.015 0
0.0933333 -0.015 0
0.09 -0.015 0
0.0866667 -0.015 0
0.0833333 -0.015 0
0.08 -0.015 0
0.0766667 -0.015 0
0.0733333 -0.015 0
0.07 -0.015 0
0.0666667 -0.015 0
0.0633333 -0.015 0
0.06 -0.015 0
0.0566667 -0.015 0
0.0533333 -0.015 0
0.05 -0.015 0
0.0466667 -0.015 0
0.0433333 -0.015 0
0.04 -0.015 0
0.0366667 -0.015 0
0.0333333 -0.015 0
0.03 -0.015 0
0.0266667 -0.015 0
0.0233333 -0.015 0
0.02 -0.015 0
0.0166667 -0.015 0
0.0133333 -0.015 0
0.01 -0.015 0
0.00666667 -0.015 0
0.00333333 -0.015 0
0 -0.015 0
0.1 -0.0183333 0
0.0966667 -0.0183333 0
0.0933333 -0.0183333 0
0.09 -0.0183333 0
0.0866667 -0.0183333 0
0.0833333 -0.0183333 0
0.08 -0.0183333 0
0.0766667 -0.0183333 0
0.0733333 -0.0183333 0
0.07 -0.0183333 0
0.0666667 -0.0183333 0
0.0633333 -0.0183333 0
0.06 -0.0183333 0
0.0566667 -0.0183333 0
0.0533333 -0.0183333 0
0.05 -0.0183333 0
0.0466667 -0.0183333 0
0.0433333 -0.0183333 0
0.04 -0.0183333 0
0.0366667 -0.0183333 0
0.0333333 -0.0183333 0
0.03 -0.0183333 0
0.0266667 -0.0183333 0
0.0233333 -0.0183333 0
0.02 -0.0183333 0
0.0166667 -0.0183333 0
0.0133333 -0.0183333 0
0.01 -0.0183333 0
0.00666667 -0.0183333 0
0.00333333 -0.0183333 0
0 -0.0183333 0
0.1 -0.0216667 0
0.0966667 -0.0216667 0
0.0933333 -0.0216667 0
0.09 -0.0216667 0
0.0866667 -0.0216667 0
0.0833333 -0.0216667 0
0.08 -0.0216667 0
0.0766667 -0.0216667 0
0.0733333 -0.0216667 0
0.07 -0.0216667 0
0.0666667 -0.0216667 0
0.0633333 -0.0216667 0
0.06 -0.0216667 0
0.0566667 -0.0216667 0
0.0533333 -0.0216667 0
0.05 -0.0216667 0
0.0466667 -0.0216667 0
0.0433333 -0.0216667 0
0.04 -0.0216667 0
0.0366667 -0.0216667 0
0.0333333 -0.0216667 0
0.03 -0.0216667 0
0.0266667 -0.0216667 0
0.0233333 -0.0216667 0
0.02 -0.0216667 0
0.0166667 -0.0216667 0
0.0133333 -0.0216667 0
0.01 -0.0216667 0
0.00666667 -0.0216667 0
0.00333333 -0.0216667 0
0 -0.0216667 0
0.1 -0.025 0
0.0966667 -0.025 0
0.0933333 -0.025 0
0.09 -0.025 0
0.0866667 -0.025 0
0.0833333 -0.025 0
0.08 -0.025 0
0.0766667 -0.025 0
0.0733333 -0.025 0
0.07 -0.025 0
0.0666667 -0.025 0
0.0633333 -0.025 0
0.06 -0.025 0
0.0566667 -0.025 0
0.0533333 -0.025 0
0.05 -0.025 0
0.0466667 -0.025 0
0.0433333 -0.025 0
0.04 -0.025 0
0.0366667 -0.025 0
0.0333333 -0.025 0
0.03 -0.025 0
0.0266667 -0.025 0
0.0233333 -0.025 0
0.02 -0.025 0
0.0166667 -0.025 0
0.0133333 -0.025 0
0.01 -0.025 0
0.00666667 -0.025 0
0.00333333 -0.025 0
0 -0.025 0
0.1 -0.0283333 0
0.0966667 -0.0283333 0
0.0933333 -0.0283333 0
0.09 -0.0283333 0
0.0866667 -0.0283333 0
0.0833333 -0.0283333 0
0.08 -0.0283333 0
0.0766667 -0.0283333 0
0.0733333 -0.0283333 0
0.07 -0.0283333 0
0.0666667 -0.0283333 0
0.0633333 -0.0283333 0
0.06 -0.0283333 0
0.0566667 -0.0283333 0
0.0533333 -0.0283333 0
0.05 -0.0283333 0
0.0466667 -0.0283333 0
0.0433333 -0.0283333 0
0.04 -0.0283333 0
0.0366667 -0.0283333 0
0.0333333 -0.0283333 0
0.03 -0.0283333 0
0.0266667 -0.0283333 0
0.0233333 -0.0283333 0
0.02 -0.0283333 0
0.0166667 -0.0283333 0
0.0133333 -0.0283333 0
0.01 -0.0283333 0
0.00666667 -0.0283333 0
0.00333333 -0.0283333 0
0 -0.0283333 0
0.1 -0.0316667 0
0.0966667 -0.0316667 0
0.0933333 -0.0316667 0
0.09 -0.0316667 0
0.0866667 -0.0316667 0
0.0833333 -0.0316667 0
0.08 -0.0316667 0
0.0766667 -0.0316667 0
0.0733333 -0.0316667 0
0.07 -0.0316667 0
0.0666667 -0.0316667 0
0.0633333 -0.0316667 0
0.06 -0.0316667 0
0.0566667 -0.0316667 0
0.0533333 -0.0316667 0
0.05 -0.0316667 0
0.0466667 -0.0316667 0
0.0433333 -0.0316667 0
0.04 -0.0316667 0
0.0366667 -0.0316667 0
0.0333333 -0.0316667 0
0.03 -0.0316667 0
0.0266667 -0.0316667 0
0.0233333 -0.0316667 0
0.02 -0.0316667 0
0.0166667 -0.0316667 0
0.0133333 -0.0316667 0
0.01 -0.0316667 0
0.00666667 -0.0316667 0
0.00333333 -0.0316667 0
0 -0.0316667 0
0.1 -0.035 0
0.0966667 -0.035 0
0.0933333 -0.035 0
0.09 -0.035 0
0.0866667 -0.035 0
0.0833333 -0.035 0
0.08 -0.035 0
0.0766667 -0.035 0
0.0733333 -0.035 0
0.07 -0.035 0
0.0666667 -0.035 0
0.0633333 -0.035 0
0.06 -0.035 0
0.0566667 -0.035 0
0.0533333 -0.035 0
0.05 -0.035 0
0.0466667 -0.035 0
0.0433333 -0.035 0
0.04 -0.035 0
0.0366667 -0.035 0
0.0333333 -0.035 0
0.03 -0.035 0
0.0266667 -0.035 0
0.0233333 -0.035 0
0.02 -0.035 0
0.0166667 -0.035 0
0.0133333 -0.035 0
0.01 -0.035 0
0.00666667 -0.035 0
0.00333333 -0.035 0
0 -0.035 0
0.1 -0.0383333 0
0.0966667 -0.0383333 0
0.0933333 -0.0383333 0
0.09 -0.0383333 0
0.0866667 -0.0383333 0
0.0833333 -0.0383333 0
0.08 -0.0383333 0
0.0766667 -0.0383333 0
0.0733333 -0.0383333 0
0.07 -0.0383333 0
0.0666667 -0.0383333 0
0.0633333 -0.0383333 0
0.06 -0.0383333 0
0.0566667 -0.0383333 0
0.0533333 -0.0383333 0
0.05 -0.0383333 0
0.0466667 -0.0383333 0
0.0433333 -0.0383333 0
0.04 -0.0383333 0
0.0366667 -0.0383333 0
0.0333333 -0.0383333 0
0.03 -0.0383333 0
0.0266667 -0.0383333 0
0.0233333 -0.0383333 0
0.02 -0.0383333 0
0.0166667 -0.0383333 0
0.0133333 -0.0383333 0
0.01 -0.0383333 0
0.00666667 -0.0383333 0
0.00333333 -0.0383333 0
0 -0.0383333 0
0.1 -0.0416667 0
0.0966667 -0.0416667 0
0.0933333 -0.0416667 0
0.09 -0.0416667 0
0.0866667 -0.0416667 0
0.0833333 -0.0416667 0
0.08 -0.0416667 0
0.0766667 -0.0416667 0
0.0733333 -0.0416667 0
0.07 -0.0416667 0
0.0666667 -0.0416667 0
0.0633333 -0.0416667 0
0.06 -0.0416667 0
0.0566667 -0.0416667 0
0.0533333 -0.0416667 0
0.05 -0.0416667 0
0.0466667 -0.0416667 0
0.0433333 -0.0416667 0
0.04 -0.0416667 0
0.0366667 -0.0416667 0
0.0333333 -0.0416667 0
0.03 -0.0416667 0
0.0266667 -0.0416667 0
0.0233333 -0.0416667 0
0.02 -0.0416667 0
0.0166667 -0.0416667 0
0.0133333 -0.0416667 0
0.01 -0.0416667 0
0.00666667 -0.0416667 0
0.00333333 -0.0416667 0
0 -0.0416667 0
0.1 -0.045 0
0.0966667 -0.045 0
0.0933333 -0.045 0
0.09 -0.045 0
0.0866667 -0.045 0
0.0833333 -0.045 0
0.08 -0.045 0
0.0766667 -0.045 0
0.0733333 -0.045 0
0.07 -0.045 0
0.0666667 -0.045 0
0.0633333 -0.045 0
0.06 -0.045 0
0.0566667 -0.045 0
0.0533333 -0.045 0
0.05 -0.045 0
0.0466667 -0.045 0
0.0433333 -0.045 0
0.04 -0.045 0
0.0366667 -0.045 0
0.0333333 -0.045 0
0.03 -0.045 0
0.0266667 -0.045 0
0.0233333 -0.045 0
0.02 -0.045 0
0.0166667 -0.045 0
0.0133333 -0.045 0
0.01 -0.045 0
0.00666667 -0.045 0
0.00333333 -0.045 0
0 -0.045 0
0.1 -0.0483333 0
0.0966667 -0.0483333 0
0.0933333 -0.0483333 0
0.09 -0.0483333 0
0.0866667 -0.0483333 0
[...]
POINT_DATA 961
SCALARS Temp float 1
LOOKUP_TABLE default
932.050216
921.632141
911.829053
902.662579
894.152948
886.318989
879.177966
872.745675
867.036286
862.062427
857.835060
854.363505
851.655437
849.716825
848.551944
848.163364
848.551944
849.716826
851.655441
854.363511
857.835058
862.062433
867.036296
872.745680
879.177979
886.318991
894.152960
902.662583
911.829068
921.632171
932.050240
921.632156
910.809015
900.624772
891.101899
882.261407
874.122859
866.704188
860.021805
854.090432
848.923185
844.531455
840.924924
838.111564
836.097578
834.887405
834.483718
834.887406
836.097579
838.111568
840.924930
844.531453
848.923191
854.090442
860.021810
866.704201
874.122861
882.261420
891.101903
900.624787
910.809042
921.632172
911.829056
900.624762
890.081866
880.223631
871.071809
862.646650
854.966720
848.049008
841.908753
836.559535
832.013144
828.279604
825.367167
823.282256
822.029465
821.611561
822.029466
823.282257
825.367172
828.279610
832.013142
836.559541
841.908763
848.049012
854.966733
862.646652
871.071821
880.223634
890.081879
900.624787
911.829069
902.662573
891.101880
880.223622
870.051804
860.608869
851.915712
843.991490
836.853731
830.518159
824.998787
820.307778
816.455478
813.450399
811.299169
810.006527
809.575330
810.006528
811.299170
813.450403
816.455484
820.307776
824.998793
830.518170
836.853735
843.991503
851.915714
860.608880
870.051806
880.223633
891.101903
902.662584
894.152951
882.261397
871.071810
860.608880
850.895693
841.953743
833.802734
826.460696
819.943804
814.266471
809.441208
805.478657
802.387575
800.174777
798.845142
798.401604
798.845142
800.174778
802.387579
805.478663
809.441206
814.266477
819.943815
826.460701
833.802748
841.953744
850.895704
860.608881
871.071820
882.261419
894.152960
886.318986
874.122842
862.646644
851.915716
841.953736
832.782747
824.422957
816.892861
810.209045
804.386292
799.437435
795.373387
792.203130
789.933654
788.569961
788.115062
788.569961
789.933655
792.203134
795.373394
799.437433
804.386298
810.209056
816.892865
824.422971
832.782747
841.953747
851.915716
862.646654
874.122863
886.318994
879.177972
866.704180
854.966724
843.991504
833.802737
824.422969
815.872867
808.171346
801.335371
795.380062
790.318544
786.161977
782.919548
780.598406
779.203669
778.738414
779.203669
780.598408
782.919552
786.161983
790.318541
795.380068
801.335382
808.171350
815.872880
824.422969
833.802748
843.991504
854.966733
866.704201
879.177979
872.745676
860.021791
848.049006
836.853739
826.460693
816.892865
808.171339
800.315407
793.342375
787.267665
782.104666
777.864762
774.557324
772.189645
770.766944
770.292361
770.766945
772.189647
774.557329
777.864769
782.104663
787.267671
793.342386
800.315411
808.171352
816.892865
826.460703
836.853738
848.049015
860.021812
872.745682
867.036293
854.090424
841.908757
830.518174
819.943808
810.209056
801.335371
793.342382
786.247696
780.067005
774.813931
770.500056
767.134916
764.725930
763.278407
762.795545
763.278408
764.725931
767.134920
770.500063
774.813928
780.067011
786.247707
793.342386
801.335385
810.209056
819.943818
830.518173
841.908766
854.090444
867.036299
862.062427
848.923170
836.559532
824.998795
814.266467
804.386296
795.380054
787.267664
780.066997
773.793978
768.462432
764.084116
760.668707
758.223735
756.754589
756.264514
756.754590
758.223736
760.668712
764.084123
768.462429
773.793984
780.067008
787.267668
795.380068
804.386295
814.266477
824.998793
836.559540
848.923191
862.062433
857.835055
844.531435
832.013136
820.307782
809.441199
799.437434
790.318530
782.104660
774.813917
768.462427
763.064187
758.631101
755.172967
752.697410
751.209887
750.713681
751.209887
752.697411
755.172972
758.631108
763.064184
768.462433
774.813928
782.104664
790.318544
799.437434
809.441209
820.307780
832.013144
844.531456
857.835061
854.363507
840.924910
828.279603
816.455488
805.478655
795.373393
786.161970
777.864763
770.500050
764.084118
758.631109
754.153046
750.659826
748.159153
746.656537
746.155296
746.656537
748.159154
750.659831
754.153053
758.631106
764.084125
770.500061
777.864767
786.161984
795.373392
805.478665
816.455486
828.279611
840.924931
854.363513
851.655438
838.111549
825.367166
813.450408
802.387572
792.203135
782.919541
774.557325
767.134909
760.668708
755.172974
750.659825
747.139236
744.618970
743.104581
742.599413
743.104581
744.618971
747.139241
750.659832
755.172971
760.668714
767.134920
774.557329
782.919555
792.203134
802.387582
813.450406
825.367174
838.111570
851.655443
849.716824
836.097561
823.282252
811.299175
800.174771
789.933656
780.598396
772.189643
764.725920
758.223733
752.697414
748.159149
744.618967
742.084675
740.561858
740.053879
740.561858
742.084676
744.618972
748.159156
752.697411
758.223740
764.725931
772.189647
780.598411
789.933655
800.174782
811.299173
823.282260
836.097582
849.716830
848.551942
834.887388
822.029461
810.006534
798.845136
788.569964
779.203659
770.766942
763.278398
756.754587
751.209891
746.656533
743.104578
740.561858
739.033977
738.524309
739.033978
740.561859
743.104583
746.656540
751.209888
756.754594
763.278409
770.766946
779.203673
788.569963
798.845147
810.006533
822.029470
834.887409
848.551949
848.163363
834.483701
821.611558
809.575337
798.401598
788.115065
778.738405
770.292360
762.795536
756.264512
750.713685
746.155293
742.599411
740.053880
738.524309
738.014078
738.524310
740.053881
742.599416
746.155300
750.713683
756.264519
762.795547
770.292364
778.738419
788.115065
798.401609
809.575336
821.611566
834.483722
848.163370
848.551942
834.887388
822.029461
810.006534
798.845136
788.569963
779.203659
770.766942
763.278398
756.754588
751.209891
746.656533
743.104578
740.561858
739.033977
738.524309
739.033978
740.561860
743.104584
746.656541
751.209889
756.754595
763.278410
770.766947
779.203674
788.569964
798.845147
810.006533
822.029470
834.887410
848.551949
849.716824
836.097561
823.282252
811.299175
800.174771
789.933656
780.598396
772.189643
764.725920
758.223733
752.697414
748.159149
744.618967
742.084675
740.561858
740.053879
740.561859
742.084676
744.618973
748.159157
752.697412
758.223741
764.725932
772.189648
780.598412
789.933657
800.174783
811.299175
823.282261
836.097583
849.716831
851.655437
838.111549
825.367165
813.450408
802.387571
792.203135
782.919540
774.557325
767.134909
760.668708
755.172974
750.659826
747.139236
744.618970
743.104582
742.599414
743.104582
744.618972
747.139242
750.659833
755.172972
760.668716
767.134922
774.557330
782.919556
792.203136
802.387584
813.450408
825.367176
838.111572
851.655445
854.363506
840.924910
828.279603
816.455487
805.478655
795.373393
786.161970
777.864764
770.500050
764.084119
758.631109
754.153047
750.659827
748.159154
746.656538
746.155298
746.656539
748.159155
750.659833
754.153054
758.631108
764.084127
770.500064
777.864770
786.161987
795.373395
805.478668
816.455489
828.279614
840.924934
854.363515
857.835057
844.531437
832.013138
820.307784
809.441202
799.437437
790.318533
782.104663
774.813920
768.462430
763.064190
758.631105
755.172971
752.697414
751.209891
750.713685
751.209892
752.697416
755.172977
758.631113
763.064189
768.462438
774.813934
782.104670
790.318550
799.437439
809.441215
820.307786
832.013150
844.531461
857.835067
862.062424
848.923167
836.559529
824.998791
814.266463
804.386293
795.380051
787.267661
780.066994
773.793975
768.462430
764.084114
760.668705
758.223733
756.754587
756.264512
756.754588
758.223735
760.668711
764.084122
768.462429
773.793984
780.067008
787.267669
795.380069
804.386296
814.266478
824.998794
836.559542
848.923192
862.062435
867.036295
854.090425
841.908759
830.518176
819.943810
810.209059
801.335374
793.342385
786.247700
780.067009
774.813935
770.500061
767.134921
764.725935
763.278413
762.795551
763.278414
764.725937
767.134927
770.500070
774.813935
780.067019
786.247715
793.342394
801.335393
810.209064
819.943826
830.518181
841.908774
854.090452
867.036307
872.745671
860.021786
848.049001
836.853734
826.460688
816.892861
808.171334
800.315402
793.342371
787.267661
782.104663
777.864759
774.557321
772.189643
770.766942
770.292359
770.766943
772.189645
774.557328
777.864768
782.104663
787.267671
793.342386
800.315411
808.171353
816.892866
826.460705
836.853740
848.049017
860.021814
872.745684
879.177976
866.704184
854.966729
843.991509
833.802743
824.422974
815.872873
808.171353
801.335379
795.380070
790.318552
786.161986
782.919557
780.598416
779.203679
778.738425
779.203680
780.598418
782.919564
786.161995
790.318553
795.380080
801.335394
808.171362
815.872893
824.422981
833.802761
843.991517
854.966746
866.704214
879.177992
886.318983
874.122839
862.646642
851.915714
841.953734
832.782745
824.422956
816.892860
810.209045
804.386292
799.437436
795.373389
792.203132
789.933656
788.569963
788.115065
788.569964
789.933658
792.203138
795.373398
799.437437
804.386303
810.209061
816.892871
824.422977
832.782754
841.953754
851.915724
862.646661
874.122871
886.319001
894.152941
882.261387
871.071800
860.608870
850.895683
841.953734
833.802725
826.460688
819.943796
814.266463
809.441201
805.478650
802.387568
800.174771
798.845136
798.401598
798.845137
800.174773
802.387575
805.478659
809.441203
814.266474
819.943813
826.460699
833.802746
841.953744
850.895705
860.608882
871.071822
882.261421
894.152962
902.662571
891.101878
880.223621
870.051803
860.608869
851.915714
843.991492
836.853734
830.518163
824.998791
820.307783
816.455483
813.450405
811.299175
810.006534
809.575337
810.006535
811.299177
813.450411
816.455492
820.307785
824.998802
830.518179
836.853745
843.991514
851.915725
860.608892
870.051818
880.223646
891.101916
902.662597
911.829044
900.624750
890.081855
880.223621
871.071799
862.646641
854.966712
848.049000
841.908746
836.559528
832.013137
828.279598
825.367162
823.282251
822.029461
821.611557
822.029462
823.282254
825.367169
828.279607
832.013140
836.559539
841.908762
848.049012
854.966734
862.646653
871.071823
880.223638
890.081884
900.624794
911.829076
921.632154
910.809014
900.624773
891.101903
882.261412
874.122865
866.704195
860.021813
854.090441
848.923195
844.531465
840.924935
838.111575
836.097590
834.887417
834.483730
834.887419
836.097592
838.111582
840.924944
844.531467
848.923206
854.090457
860.021825
866.704217
874.122878
882.261437
891.101922
900.624807
910.809064
921.632199
932.050197
921.632126
911.829044
902.662572
894.152942
886.318984
879.177962
872.745672
867.036284
862.062425
857.835058
854.363504
851.655436
849.716825
848.551944
848.163365
848.551945
849.716827
851.655442
854.363513
857.835060
862.062436
867.036299
872.745683
879.177983
886.318997
894.152966
902.662592
911.829078
921.632185
932.050262
