# vtk DataFile Version 2.0
Unstructured Grid Example
ASCII
DATASET UNSTRUCTURED_GRID

POINTS 961 float
0.1 0.005 0
0.0966667 0.005 0
0.0933333 0.005 0
0.09 0.005 0
0.0866667 0.005 0
0.0833333 0.005 0
0.08 0.005 0
0.0766667 0.005 0
0.0733333 0.005 0
0.07 0.005 0
0.0666667 0.005 0
0.0633333 0.005 0
0.06 0.005 0
0.0566667 0.005 0
0.0533333 0.005 0
0.05 0.005 0
0.0466667 0.005 0
0.0433333 0.005 0
0.04 0.005 0
0.0366667 0.005 0
0.0333333 0.005 0
0.03 0.005 0
0.0266667 0.005 0
0.0233333 0.005 0
0.02 0.005 0
0.0166667 0.005 0
0.0133333 0.005 0
0.01 0.005 0
0.00666667 0.005 0
0.00333333 0.005 0
0 0.005 0
0.1 0.00166667 0
0.0966667 0.00166667 0
0.0933333 0.00166667 0
0.09 0.00166667 0
0.0866667 0.00166667 0
0.0833333 0.00166667 0
0.08 0.00166667 0
0.0766667 0.00166667 0
0.0733333 0.00166667 0
0.07 0.00166667 0
0.0666667 0.00166667 0
0.0633333 0.00166667 0
0.06 0.00166667 0
0.0566667 0.00166667 0
0.0533333 0.00166667 0
0.05 0.00166667 0
0.0466667 0.00166667 0
0.0433333 0.00166667 0
0.04 0.00166667 0
0.0366667 0.00166667 0
0.0333333 0.00166667 0
0.03 0.00166667 0
0.0266667 0.00166667 0
0.0233333 0.00166667 0
0.02 0.00166667 0
0.0166667 0.00166667 0
0.0133333 0.00166667 0
0.01 0.00166667 0
0.00666667 0.00166667 0
0.00333333 0.00166667 0
0 0.00166667 0
0.1 -0.00166667 0
0.0966667 -0.00166667 0
0.0933333 -0.00166667 0
0.09 -0.00166667 0
0.0866667 -0.00166667 0
0.0833333 -0.00166667 0
0.08 -0.00166667 0
0.0766667 -0.00166667 0
0.0733333 -0.00166667 0
0.07 -0.00166667 0
0.0666667 -0.00166667 0
0.0633333 -0.00166667 0
0.06 -0.00166667 0
0.0566667 -0.00166667 0
0.0533333 -0.00166667 0
0.05 -0.00166667 0
0.0466667 -0.00166667 0
0.0433333 -0.00166667 0
0.04 -0.00166667 0
0.0366667 -0.00166667 0
0.0333333 -0.00166667 0
0.03 -0.00166667 0
0.0266667 -0.00166667 0
0.0233333 -0.00166667 0
0.02 -0.00166667 0
0.0166667 -0.00166667 0
0.0133333 -0.00166667 0
0.01 -0.00166667 0
0.00666667 -0.00166667 0
0.00333333 -0.00166667 0
0 -0.00166667 0
0.1 -0.005 0
0.0966667 -0.005 0
0.0933333 -0.005 0
0.09 -0.005 0
0.0866667 -0.005 0
0.0833333 -0.005 0
0.08 -0.005 0
0.0766667 -0.005 0
0.0733333 -0.005 0
0.07 -0.005 0
0.0666667 -0.005 0
0.0633333 -0.005 0
0.06 -0.005 0
0.0566667 -0.005 0
0.0533333 -0.005 0
0.05 -0.005 0
0.0466667 -0.005 0
0.0433333 -0.005 0
0.04 -0.005 0
0.0366667 -0.005 0
0.0333333 -0.005 0
0.03 -0.005 0
0.0266667 -0.005 0
0.0233333 -0.005 0
0.02 -0.005 0
0.0166667 -0.005 0
0.0133333 -0.005 0
0.01 -0.005 0
0.00666667 -0.005 0
0.00333333 -0.005 0
0 -0.005 0
0.1 -0.00833333 0
0.0966667 -0.00833333 0
0.0933333 -0.00833333 0
0.09 -0.00833333 0
0.0866667 -0.00833333 0
0.0833333 -0.00833333 0
0.08 -0.00833333 0
0.0766667 -0.00833333 0
0.0733333 -0.00833333 0
0.07 -0.00833333 0
0.0666667 -0.00833333 0
0.0633333 -0.00833333 0
0.06 -0.00833333 0
0.0566667 -0.00833333 0
0.0533333 -0.00833333 0
0.05 -0.00833333 0
0.0466667 -0.00833333 0
0.0433333 -0.00833333 0
0.04 -0.00833333 0
0.0366667 -0.00833333 0
0.0333333 -0.00833333 0
0.03 -0.00833333 0
0.0266667 -0.00833333 0
0.0233333 -0.00833333 0
0.02 -0.00833333 0
0.0166667 -0.00833333 0
0.0133333 -0.00833333 0
0.01 -0.00833333 0
0.00666667 -0.00833333 0
0.00333333 -0.00833333 0
0 -0.00833333 0
0.1 -0.0116667 0
0.0966667 -0.0116667 0
0.0933333 -0.0116667 0
0.09 -0.0116667 0
0.0866667 -0.0116667 0
0.0833333 -0.0116667 0
0.08 -0.0116667 0
0.0766667 -0.0116667 0
0.0733333 -0.0116667 0
0.07 -0.0116667 0
0.0666667 -0.0116667 0
0.0633333 -0.0116667 0
0.06 -0.0116667 0
0.0566667 -0.0116667 0
0.0533333 -0.0116667 0
0.05 -0.0116667 0
0.0466667 -0.0116667 0
0.0433333 -0.0116667 0
0.04 -0.0116667 0
0.0366667 -0.0116667 0
0.0333333 -0.0116667 0
0.03 -0.0116667 0
0.0266667 -0.0116667 0
0.0233333 -0.0116667 0
0.02 -0.0116667 0
0.0166667 -0.0116667 0
0.0133333 -0.0116667 0
0.01 -0.0116667 0
0.00666667 -0.0116667 0
0.00333333 -0.0116667 0
0 -0.0116667 0
0.1 -0.015 0
0.0966667 -0.015 0
0.0933333 -0.015 0
0.09 -0.015 0
0.0866667 -0.015 0
0.0833333 -0.015 0
0.08 -0.015 0
0.0766667 -0.015 0
0.0733333 -0.015 0
0.07 -0.015 0
0.0666667 -0.015 0
0.0633333 -0.015 0
0.06 -0.015 0
0.0566667 -0.015 0
0.0533333 -0.015 0
0.05 -0.015 0
0.0466667 -0.015 0
0.0433333 -0.015 0
0.04 -0.015 0
0.0366667 -0.015 0
0.0333333 -0.015 0
0.03 -0.015 0
0.0266667 -0.015 0
0.0233333 -0.015 0
0.02 -0.015 0
0.0166667 -0.015 0
0.0133333 -0.015 0
0.01 -0.015 0
0.00666667 -0.015 0
0.00333333 -0.015 0
0 -0.015 0
0.1 -0.0183333 0
0.0966667 -0.0183333 0
0.0933333 -0.0183333 0
0.09 -0.0183333 0
0.0866667 -0.0183333 0
0.0833333 -0.0183333 0
0.08 -0.0183333 0
0.0766667 -0.0183333 0
0.0733333 -0.0183333 0
0.07 -0.0183333 0
0.0666667 -0.0183333 0
0.0633333 -0.0183333 0
0.06 -0.0183333 0
0.0566667 -0.0183333 0
0.0533333 -0.0183333 0
0.05 -0.0183333 0
0.0466667 -0.0183333 0
0.0433333 -0.0183333 0
0.04 -0.0183333 0
0.0366667 -0.0183333 0
0.0333333 -0.0183333 0
0.03 -0.0183333 0
0.0266667 -0.0183333 0
0.0233333 -0.0183333 0
0.02 -0.0183333 0
0.0166667 -0.0183333 0
0.0133333 -0.0183333 0
0.01 -0.0183333 0
0.00666667 -0.0183333 0
0.00333333 -0.0183333 0
0 -0.0183333 0
0.1 -0.0216667 0
0.0966667 -0.0216667 0
0.0933333 -0.0216667 0
0.09 -0.0216667 0
0.0866667 -0.0216667 0
0.0833333 -0.0216667 0
0.08 -0.0216667 0
0.0766667 -0.0216667 0
0.0733333 -0.0216667 0
0.07 -0.0216667 0
0.0666667 -0.0216667 0
0.0633333 -0.0216667 0
0.06 -0.0216667 0
0.0566667 -0.0216667 0
0.0533333 -0.0216667 0
0.05 -0.0216667 0
0.0466667 -0.0216667 0
0.0433333 -0.0216667 0
0.04 -0.0216667 0
0.0366667 -0.0216667 0
0.0333333 -0.0216667 0
0.03 -0.0216667 0
0.0266667 -0.0216667 0
0.0233333 -0.0216667 0
0.02 -0.0216667 0
0.0166667 -0.0216667 0
0.0133333 -0.0216667 0
0.01 -0.0216667 0
0.00666667 -0.0216667 0
0.00333333 -0.0216667 0
0 -0.0216667 0
0.1 -0.025 0
0.0966667 -0.025 0
0.0933333 -0.025 0
0.09 -0.025 0
0.0866667 -0.025 0
0.0833333 -0.025 0
0.08 -0.025 0
0.0766667 -0.025 0
0.0733333 -0.025 0
0.07 -0.025 0
0.0666667 -0.025 0
0.0633333 -0.025 0
0.06 -0.025 0
0.0566667 -0.025 0
0.0533333 -0.025 0
0.05 -0.025 0
0.0466667 -0.025 0
0.0433333 -0.025 0
0.04 -0.025 0
0.0366667 -0.025 0
0.0333333 -0.025 0
0.03 -0.025 0
0.0266667 -0.025 0
0.0233333 -0.025 0
0.02 -0.025 0
0.0166667 -0.025 0
0.0133333 -0.025 0
0.01 -0.025 0
0.00666667 -0.025 0
0.00333333 -0.025 0
0 -0.025 0
0.1 -0.0283333 0
0.0966667 -0.0283333 0
0.0933333 -0.0283333 0
0.09 -0.0283333 0
0.0866667 -0.0283333 0
0.0833333 -0.0283333 0
0.08 -0.0283333 0
0.0766667 -0.0283333 0
0.0733333 -0.0283333 0
0.07 -0.0283333 0
0.0666667 -0.0283333 0
0.0633333 -0.0283333 0
0.06 -0.0283333 0
0.0566667 -0.0283333 0
0.0533333 -0.0283333 0
0.05 -0.0283333 0
0.0466667 -0.0283333 0
0.0433333 -0.0283333 0
0.04 -0.0283333 0
0.0366667 -0.0283333 0
0.0333333 -0.0283333 0
0.03 -0.0283333 0
0.0266667 -0.0283333 0
0.0233333 -0.0283333 0
0.02 -0.0283333 0
0.0166667 -0.0283333 0
0.0133333 -0.0283333 0
0.01 -0.0283333 0
0.00666667 -0.0283333 0
0.00333333 -0.0283333 0
0 -0.0283333 0
0.1 -0.0316667 0
0.0966667 -0.0316667 0
0.0933333 -0.0316667 0
0.09 -0.0316667 0
0.0866667 -0.0316667 0
0.0833333 -0.0316667 0
0.08 -0.0316667 0
0.0766667 -0.0316667 0
0.0733333 -0.0316667 0
0.07 -0.0316667 0
0.0666667 -0.0316667 0
0.0633333 -0.0316667 0
0.06 -0.0316667 0
0.0566667 -0.0316667 0
0.0533333 -0.0316667 0
0.05 -0.0316667 0
0.0466667 -0.0316667 0
0.0433333 -0.0316667 0
0.04 -0.0316667 0
0.0366667 -0.0316667 0
0.0333333 -0.0316667 0
0.03 -0.0316667 0
0.0266667 -0.0316667 0
0.0233333 -0.0316667 0
0.02 -0.0316667 0
0.0166667 -0.0316667 0
0.0133333 -0.0316667 0
0.01 -0.0316667 0
0.00666667 -0.0316667 0
0.00333333 -0.0316667 0
0 -0.0316667 0
0.1 -0.035 0
0.0966667 -0.035 0
0.0933333 -0.035 0
0.09 -0.035 0
0.0866667 -0.035 0
0.0833333 -0.035 0
0.08 -0.035 0
0.0766667 -0.035 0
0.0733333 -0.035 0
0.07 -0.035 0
0.0666667 -0.035 0
0.0633333 -0.035 0
0.06 -0.035 0
0.0566667 -0.035 0
0.0533333 -0.035 0
0.05 -0.035 0
0.0466667 -0.035 0
0.0433333 -0.035 0
0.04 -0.035 0
0.0366667 -0.035 0
0.0333333 -0.035 0
0.03 -0.035 0
0.0266667 -0.035 0
0.0233333 -0.035 0
0.02 -0.035 0
0.0166667 -0.035 0
0.0133333 -0.035 0
0.01 -0.035 0
0.00666667 -0.035 0
0.00333333 -0.035 0
0 -0.035 0
0.1 -0.0383333 0
0.0966667 -0.0383333 0
0.0933333 -0.0383333 0
0.09 -0.0383333 0
0.0866667 -0.0383333 0
0.0833333 -0.0383333 0
0.08 -0.0383333 0
0.0766667 -0.0383333 0
0.0733333 -0.0383333 0
0.07 -0.0383333 0
0.0666667 -0.0383333 0
0.0633333 -0.0383333 0
0.06 -0.0383333 0
0.0566667 -0.0383333 0
0.0533333 -0.0383333 0
0.05 -0.0383333 0
0.0466667 -0.0383333 0
0.0433333 -0.0383333 0
0.04 -0.0383333 0
0.0366667 -0.0383333 0
0.0333333 -0.0383333 0
0.03 -0.0383333 0
0.0266667 -0.0383333 0
0.0233333 -0.0383333 0
0.02 -0.0383333 0
0.0166667 -0.0383333 0
0.0133333 -0.0383333 0
0.01 -0.0383333 0
0.00666667 -0.0383333 0
0.00333333 -0.0383333 0
0 -0.0383333 0
0.1 -0.0416667 0
0.0966667 -0.0416667 0
0.0933333 -0.0416667 0
0.09 -0.0416667 0
0.0866667 -0.0416667 0
0.0833333 -0.0416667 0
0.08 -0.0416667 0
0.0766667 -0.0416667 0
0.0733333 -0.0416667 0
0.07 -0.0416667 0
0.0666667 -0.0416667 0
0.0633333 -0.0416667 0
0.06 -0.0416667 0
0.0566667 -0.0416667 0
0.0533333 -0.0416667 0
0.05 -0.0416667 0
0.0466667 -0.0416667 0
0.0433333 -0.0416667 0
0.04 -0.0416667 0
0.0366667 -0.0416667 0
0.0333333 -0.0416667 0
0.03 -0.0416667 0
0.0266667 -0.0416667 0
0.0233333 -0.0416667 0
0.02 -0.0416667 0
0.0166667 -0.0416667 0
0.0133333 -0.0416667 0
0.01 -0.0416667 0
0.00666667 -0.0416667 0
0.00333333 -0.0416667 0
0 -0.0416667 0
0.1 -0.045 0
0.0966667 -0.045 0
0.0933333 -0.045 0
0.09 -0.045 0
0.0866667 -0.045 0
0.0833333 -0.045 0
0.08 -0.045 0
0.0766667 -0.045 0
0.0733333 -0.045 0
0.07 -0.045 0
0.0666667 -0.045 0
0.0633333 -0.045 0
0.06 -0.045 0
0.0566667 -0.045 0
0.0533333 -0.045 0
0.05 -0.045 0
0.0466667 -0.045 0
0.0433333 -0.045 0
0.04 -0.045 0
0.0366667 -0.045 0
0.0333333 -0.045 0
0.03 -0.045 0
0.0266667 -0.045 0
0.0233333 -0.045 0
0.02 -0.045 0
0.0166667 -0.045 0
0.0133333 -0.045 0
0.01 -0.045 0
0.00666667 -0.045 0
0.00333333 -0.045 0
0 -0.045 0
0.1 -0.0483333 0
0.0966667 -0.0483333 0
0.0933333 -0.0483333 0
0.09 -0.0483333 0
0.0866667 -0.0483333 0
[...]
POINT_DATA 961
SCALARS Temp float 1
LOOKUP_TABLE default
1023.416512
1016.550807
1010.090357
1004.049415
998.441315
993.278472
988.572266
984.333116
980.570365
977.292344
974.506283
972.218333
970.433556
969.155893
968.388164
968.132066
968.388164
969.155894
970.433559
972.218337
974.506282
977.292348
980.570372
984.333119
988.572275
993.278474
998.441323
1004.049418
1010.090366
1016.550827
1023.416528
1016.550817
1009.418165
1002.706524
996.430706
990.604559
985.240980
980.351794
975.947822
972.038773
968.633299
965.738914
963.362007
961.507836
960.180497
959.382918
959.116862
959.382918
960.180498
961.507839
963.362010
965.738913
968.633303
972.038779
975.947825
980.351803
985.240982
990.604567
996.430709
1002.706534
1009.418183
1016.550828
1010.090359
1002.706518
995.758515
989.261682
983.230358
977.677892
972.616525
968.057460
964.010747
960.485344
957.489029
955.028415
953.108947
951.734863
950.909196
950.633771
950.909196
951.734864
953.108950
955.028419
957.489027
960.485348
964.010754
968.057463
972.616534
977.677894
983.230366
989.261685
995.758524
1002.706534
1010.090367
1004.049411
996.430693
989.261677
982.558182
976.335003
970.605915
965.383548
960.679461
956.504024
952.866479
949.774852
947.235967
945.255442
943.837649
942.985717
942.701531
942.985718
943.837650
945.255445
947.235971
949.774851
952.866483
956.504031
960.679464
965.383557
970.605917
976.335011
982.558184
989.261684
996.430708
1004.049418
998.441318
990.604552
983.230359
976.335011
969.933725
964.040670
958.668839
953.830121
949.535183
945.793532
942.613423
940.001875
937.964667
936.506297
935.629984
935.337664
935.629984
936.506298
937.964670
940.001879
942.613422
945.793537
949.535190
953.830124
958.668848
964.040671
969.933732
976.335012
983.230366
990.604567
998.441324
993.278470
985.240969
977.677888
970.605918
964.040666
957.996663
952.487234
947.524574
943.119623
939.282131
936.020564
933.342123
931.252732
929.757007
928.858247
928.558439
928.858247
929.757007
931.252735
933.342127
936.020563
939.282135
943.119630
947.524577
952.487243
957.996663
964.040673
970.605918
977.677895
985.240983
993.278475
988.572271
980.351789
972.616528
965.383558
958.668841
952.487241
946.852386
941.776746
937.271512
933.346656
930.010837
927.271418
925.134461
923.604684
922.685463
922.378830
922.685463
923.604685
925.134464
927.271423
930.010836
933.346661
937.271520
941.776749
946.852395
952.487242
958.668849
965.383558
972.616534
980.351803
988.572276
984.333116
975.947812
968.057459
960.679466
953.830119
947.524577
941.776741
936.599335
932.003770
928.000220
924.597518
921.803173
919.623370
918.062920
917.125269
916.812488
917.125269
918.062921
919.623373
921.803177
924.597516
928.000225
932.003778
936.599337
941.776751
947.524577
953.830126
960.679466
968.057464
975.947826
984.333121
980.570369
972.038767
964.010750
956.504034
949.535185
943.119630
937.271512
932.003775
927.328032
923.254631
919.792562
916.949464
914.731629
913.143955
912.189944
911.871706
912.189944
913.143956
914.731633
916.949468
919.792560
923.254636
927.328039
932.003778
937.271521
943.119630
949.535192
956.504033
964.010756
972.038781
980.570374
977.292344
968.633289
960.485342
952.866485
945.793530
939.282134
933.346651
928.000220
923.254626
919.120374
915.606585
912.721015
910.470049
908.858656
907.890393
907.567401
907.890394
908.858657
910.470052
912.721019
915.606583
919.120379
923.254634
928.000223
933.346660
939.282133
945.793537
952.866484
960.485348
968.633303
977.292348
974.506280
965.738901
957.489024
949.774854
942.613417
936.020564
930.010828
924.597514
919.792553
915.606581
912.048835
909.127166
906.848040
905.216489
904.236114
903.909081
904.236114
905.216490
906.848044
909.127171
912.048833
915.606586
919.792560
924.597516
930.010838
936.020563
942.613424
949.774853
957.489029
965.738915
974.506284
972.218334
963.361997
955.028414
947.235973
940.001874
933.342126
927.271414
921.803174
916.949460
912.721016
909.127171
906.175858
903.873607
902.225502
901.235179
900.904828
901.235179
902.225503
903.873611
906.175863
909.127170
912.721021
916.949467
921.803177
927.271423
933.342126
940.001880
947.235972
955.028419
963.362011
972.218338
970.433557
961.507827
953.108946
945.255448
937.964665
931.252736
925.134457
919.623370
914.731625
910.470049
906.848045
903.873607
901.553317
899.892298
898.894215
898.561276
898.894216
899.892299
901.553320
903.873611
906.848043
910.470054
914.731632
919.623373
925.134466
931.252735
937.964672
945.255446
953.108951
961.507841
970.433561
969.155892
960.180486
951.734860
943.837653
936.506293
929.757008
923.604678
918.062919
913.143948
908.858655
905.216492
902.225500
899.892296
898.222032
897.218395
896.883602
897.218395
898.222033
899.892299
902.225504
905.216490
908.858659
913.143956
918.062921
923.604687
929.757008
936.506300
943.837652
951.734866
960.180500
969.155896
968.388163
959.382906
950.909193
942.985722
935.629980
928.858248
922.685456
917.125267
912.189938
907.890392
904.236116
901.235177
898.894213
897.218395
896.211420
895.875514
896.211420
897.218396
898.894217
901.235181
904.236115
907.890397
912.189945
917.125270
922.685466
928.858248
935.629987
942.985721
950.909199
959.382921
968.388167
968.132065
959.116851
950.633768
942.701536
935.337660
928.558441
922.378824
916.812486
911.871700
907.567400
903.909084
900.904826
898.561274
896.883603
895.875514
895.539237
895.875515
896.883604
898.561278
900.904831
903.909082
907.567405
911.871708
916.812490
922.378834
928.558441
935.337668
942.701535
950.633774
959.116865
968.132069
968.388163
959.382906
950.909193
942.985722
935.629980
928.858248
922.685456
917.125267
912.189938
907.890392
904.236116
901.235177
898.894213
897.218395
896.211420
895.875514
896.211420
897.218396
898.894217
901.235182
904.236115
907.890397
912.189946
917.125270
922.685467
928.858249
935.629987
942.985721
950.909199
959.382921
968.388168
969.155892
960.180485
951.734860
943.837653
936.506293
929.757008
923.604677
918.062919
913.143948
908.858655
905.216492
902.225500
899.892296
898.222032
897.218395
896.883603
897.218395
898.222033
899.892300
902.225505
905.216491
908.858660
913.143957
918.062922
923.604688
929.757009
936.506301
943.837653
951.734867
960.180500
969.155897
970.433556
961.507826
953.108945
945.255447
937.964665
931.252736
925.134456
919.623370
914.731625
910.470049
906.848045
903.873607
901.553317
899.892298
898.894216
898.561276
898.894216
899.892299
901.553321
903.873612
906.848044
910.470055
914.731634
919.623374
925.134467
931.252737
937.964673
945.255448
953.108952
961.507842
970.433562
972.218333
963.361997
955.028414
947.235973
940.001873
933.342126
927.271414
921.803174
916.949460
912.721016
909.127172
906.175859
903.873608
902.225503
901.235180
900.904829
901.235180
902.225504
903.873612
906.175864
909.127171
912.721022
916.949469
921.803178
927.271425
933.342128
940.001882
947.235974
955.028421
963.362013
972.218340
974.506281
965.738902
957.489025
949.774856
942.613418
936.020565
930.010830
924.597516
919.792555
915.606584
912.048837
909.127169
906.848043
905.216492
904.236116
903.909084
904.236117
905.216493
906.848047
909.127174
912.048837
915.606589
919.792564
924.597520
930.010842
936.020567
942.613428
949.774857
957.489033
965.738918
974.506288
977.292341
968.633287
960.485340
952.866482
945.793527
939.282131
933.346649
928.000218
923.254624
919.120373
915.606584
912.721013
910.470047
908.858655
907.890392
907.567400
907.890393
908.858656
910.470051
912.721019
915.606583
919.120379
923.254634
928.000223
933.346661
939.282134
945.793537
952.866484
960.485349
968.633304
977.292349
980.570371
972.038768
964.010751
956.504035
949.535187
943.119632
937.271514
932.003777
927.328034
923.254634
919.792565
916.949467
914.731633
913.143959
912.189948
911.871710
912.189949
913.143960
914.731637
916.949473
919.792565
923.254641
927.328044
932.003783
937.271526
943.119636
949.535198
956.504038
964.010761
972.038786
980.570379
984.333113
975.947809
968.057455
960.679463
953.830116
947.524574
941.776739
936.599332
932.003768
928.000218
924.597515
921.803171
919.623368
918.062919
917.125267
916.812486
917.125268
918.062920
919.623372
921.803177
924.597516
928.000225
932.003778
936.599338
941.776751
947.524578
953.830127
960.679467
968.057466
975.947828
984.333122
988.572273
980.351791
972.616531
965.383561
958.668845
952.487245
946.852390
941.776751
937.271517
933.346662
930.010843
927.271424
925.134467
923.604691
922.685470
922.378837
922.685470
923.604692
925.134472
927.271430
930.010843
933.346668
937.271528
941.776757
946.852403
952.487250
958.668857
965.383566
972.616543
980.351811
988.572284
993.278468
985.240967
977.677887
970.605917
964.040664
957.996662
952.487234
947.524574
943.119623
939.282131
936.020565
933.342123
931.252733
929.757008
928.858248
928.558441
928.858249
929.757010
931.252738
933.342130
936.020566
939.282138
943.119634
947.524581
952.487247
957.996668
964.040678
970.605923
977.677900
985.240988
993.278480
998.441311
990.604546
983.230352
976.335004
969.933718
964.040664
958.668833
953.830116
949.535178
945.793527
942.613418
940.001870
937.964663
936.506293
935.629980
935.337660
935.629980
936.506295
937.964667
940.001877
942.613419
945.793534
949.535189
953.830123
958.668848
964.040671
969.933733
976.335012
983.230367
990.604568
998.441325
1004.049410
996.430692
989.261676
982.558182
976.335004
970.605916
965.383550
960.679463
956.504026
952.866482
949.774855
947.235970
945.255445
943.837653
942.985722
942.701536
942.985722
943.837654
945.255450
947.235976
949.774857
952.866489
956.504037
960.679471
965.383564
970.605924
976.335019
982.558192
989.261693
996.430717
1004.049427
1010.090351
1002.706510
995.758507
989.261676
983.230352
977.677886
972.616520
968.057455
964.010742
960.485340
957.489025
955.028411
953.108943
951.734860
950.909193
950.633768
950.909194
951.734861
953.108948
955.028417
957.489026
960.485347
964.010753
968.057463
972.616534
977.677894
983.230368
989.261687
995.758527
1002.706539
1010.090372
1016.550816
1009.418164
1002.706525
996.430708
990.604562
985.240984
980.351798
975.947827
972.038778
968.633305
965.738921
963.362014
961.507844
960.180505
959.382926
959.116870
959.382927
960.180506
961.507848
963.362020
965.738922
968.633312
972.038789
975.947835
980.351813
985.240993
990.604579
996.430721
1002.706547
1009.418198
1016.550845
1023.416500
1016.550797
1010.090351
1004.049410
998.441312
993.278469
988.572264
984.333114
980.570364
977.292342
974.506282
972.218332
970.433555
969.155893
968.388164
968.132066
968.388165
969.155895
970.433560
972.218338
974.506283
977.292349
980.570374
984.333121
988.572278
993.278477
998.441328
1004.049423
1010.090373
1016.550836
1023.416543
