# vtk DataFile Version 2.0
Unstructured Grid Example
ASCII
DATASET UNSTRUCTURED_GRID

POINTS 961 float
0.1 0.005 0
0.0966667 0.005 0
0.0933333 0.005 0
0.09 0.005 0
0.0866667 0.005 0
0.0833333 0.005 0
0.08 0.005 0
0.0766667 0.005 0
0.0733333 0.005 0
0.07 0.005 0
0.0666667 0.005 0
0.0633333 0.005 0
0.06 0.005 0
0.0566667 0.005 0
0.0533333 0.005 0
0.05 0.005 0
0.0466667 0.005 0
0.0433333 0.005 0
0.04 0.005 0
0.0366667 0.005 0
0.0333333 0.005 0
0.03 0.005 0
0.0266667 0.005 0
0.0233333 0.005 0
0.02 0.005 0
0.0166667 0.005 0
0.0133333 0.005 0
0.01 0.005 0
0.00666667 0.005 0
0.00333333 0.005 0
0 0.005 0
0.1 0.00166667 0
0.0966667 0.00166667 0
0.0933333 0.00166667 0
0.09 0.00166667 0
0.0866667 0.00166667 0
0.0833333 0.00166667 0
0.08 0.00166667 0
0.0766667 0.00166667 0
0.0733333 0.00166667 0
0.07 0.00166667 0
0.0666667 0.00166667 0
0.0633333 0.00166667 0
0.06 0.00166667 0
0.0566667 0.00166667 0
0.0533333 0.00166667 0
0.05 0.00166667 0
0.0466667 0.00166667 0
0.0433333 0.00166667 0
0.04 0.00166667 0
0.0366667 0.00166667 0
0.0333333 0.00166667 0
0.03 0.00166667 0
0.0266667 0.00166667 0
0.0233333 0.00166667 0
0.02 0.00166667 0
0.0166667 0.00166667 0
0.0133333 0.00166667 0
0.01 0.00166667 0
0.00666667 0.00166667 0
0.00333333 0.00166667 0
0 0.00166667 0
0.1 -0.00166667 0
0.0966667 -0.00166667 0
0.0933333 -0.00166667 0
0.09 -0.00166667 0
0.0866667 -0.00166667 0
0.0833333 -0.00166667 0
0.08 -0.00166667 0
0.0766667 -0.00166667 0
0.0733333 -0.00166667 0
0.07 -0.00166667 0
0.0666667 -0.00166667 0
0.0633333 -0.00166667 0
0.06 -0.00166667 0
0.0566667 -0.00166667 0
0.0533333 -0.00166667 0
0.05 -0.00166667 0
0.0466667 -0.00166667 0
0.0433333 -0.00166667 0
0.04 -0.00166667 0
0.0366667 -0.00166667 0
0.0333333 -0.00166667 0
0.03 -0.00166667 0
0.0266667 -0.00166667 0
0.0233333 -0.00166667 0
0.02 -0.00166667 0
0.0166667 -0.00166667 0
0.0133333 -0.00166667 0
0.01 -0.00166667 0
0.00666667 -0.00166667 0
0.00333333 -0.00166667 0
0 -0.00166667 0
0.1 -0.005 0
0.0966667 -0.005 0
0.0933333 -0.005 0
0.09 -0.005 0
0.0866667 -0.005 0
0.0833333 -0.005 0
0.08 -0.005 0
0.0766667 -0.005 0
0.0733333 -0.005 0
0.07 -0.005 0
0.0666667 -0.005 0
0.0633333 -0.005 0
0.06 -0.005 0
0.0566667 -0.005 0
0.0533333 -0.005 0
0.05 -0.005 0
0.0466667 -0.005 0
0.0433333 -0.005 0
0.04 -0.005 0
0.0366667 -0.005 0
0.0333333 -0.005 0
0.03 -0.005 0
0.0266667 -0.005 0
0.0233333 -0.005 0
0.02 -0.005 0
0.0166667 -0.005 0
0.0133333 -0.005 0
0.01 -0.005 0
0.00666667 -0.005 0
0.00333333 -0.005 0
0 -0.005 0
0.1 -0.00833333 0
0.0966667 -0.00833333 0
0.0933333 -0.00833333 0
0.09 -0.00833333 0
0.0866667 -0.00833333 0
0.0833333 -0.00833333 0
0.08 -0.00833333 0
0.0766667 -0.00833333 0
0.0733333 -0.00833333 0
0.07 -0.00833333 0
0.0666667 -0.00833333 0
0.0633333 -0.00833333 0
0.06 -0.00833333 0
0.0566667 -0.00833333 0
0.0533333 -0.00833333 0
0.05 -0.00833333 0
0.0466667 -0.00833333 0
0.0433333 -0.00833333 0
0.04 -0.00833333 0
0.0366667 -0.00833333 0
0.0333333 -0.00833333 0
0.03 -0.00833333 0
0.0266667 -0.00833333 0
0.0233333 -0.00833333 0
0.02 -0.00833333 0
0.0166667 -0.00833333 0
0.0133333 -0.00833333 0
0.01 -0.00833333 0
0.00666667 -0.00833333 0
0.00333333 -0.00833333 0
0 -0.00833333 0
0.1 -0.0116667 0
0.0966667 -0.0116667 0
0.0933333 -0.0116667 0
0.09 -0.0116667 0
0.0866667 -0.0116667 0
0.0833333 -0.0116667 0
0.08 -0.0116667 0
0.0766667 -0.0116667 0
0.0733333 -0.0116667 0
0.07 -0.0116667 0
0.0666667 -0.0116667 0
0.0633333 -0.0116667 0
0.06 -0.0116667 0
0.0566667 -0.0116667 0
0.0533333 -0.0116667 0
0.05 -0.0116667 0
0.0466667 -0.0116667 0
0.0433333 -0.0116667 0
0.04 -0.0116667 0
0.0366667 -0.0116667 0
0.0333333 -0.0116667 0
0.03 -0.0116667 0
0.0266667 -0.0116667 0
0.0233333 -0.0116667 0
0.02 -0.0116667 0
0.0166667 -0.0116667 0
0.0133333 -0.0116667 0
0.01 -0.0116667 0
0.00666667 -0.0116667 0
0.00333333 -0.0116667 0
0 -0.0116667 0
0.1 -0.015 0
0.0966667 -0.015 0
0.0933333 -0.015 0
0.09 -0.015 0
0.0866667 -0.015 0
0.0833333 -0.015 0
0.08 -0.015 0
0.0766667 -0.015 0
0.0733333 -0.015 0
0.07 -0.015 0
0.0666667 -0.015 0
0.0633333 -0.015 0
0.06 -0.015 0
0.0566667 -0.015 0
0.0533333 -0.015 0
0.05 -0.015 0
0.0466667 -0.015 0
0.0433333 -0.015 0
0.04 -0.015 0
0.0366667 -0.015 0
0.0333333 -0.015 0
0.03 -0.015 0
0.0266667 -0.015 0
0.0233333 -0.015 0
0.02 -0.015 0
0.0166667 -0.015 0
0.0133333 -0.015 0
0.01 -0.015 0
0.00666667 -0.015 0
0.00333333 -0.015 0
0 -0.015 0
0.1 -0.0183333 0
0.0966667 -0.0183333 0
0.0933333 -0.0183333 0
0.09 -0.0183333 0
0.0866667 -0.0183333 0
0.0833333 -0.0183333 0
0.08 -0.0183333 0
0.0766667 -0.0183333 0
0.0733333 -0.0183333 0
0.07 -0.0183333 0
0.0666667 -0.0183333 0
0.0633333 -0.0183333 0
0.06 -0.0183333 0
0.0566667 -0.0183333 0
0.0533333 -0.0183333 0
0.05 -0.0183333 0
0.0466667 -0.0183333 0
0.0433333 -0.0183333 0
0.04 -0.0183333 0
0.0366667 -0.0183333 0
0.0333333 -0.0183333 0
0.03 -0.0183333 0
0.0266667 -0.0183333 0
0.0233333 -0.0183333 0
0.02 -0.0183333 0
0.0166667 -0.0183333 0
0.0133333 -0.0183333 0
0.01 -0.0183333 0
0.00666667 -0.0183333 0
0.00333333 -0.0183333 0
0 -0.0183333 0
0.1 -0.0216667 0
0.0966667 -0.0216667 0
0.0933333 -0.0216667 0
0.09 -0.0216667 0
0.0866667 -0.0216667 0
0.0833333 -0.0216667 0
0.08 -0.0216667 0
0.0766667 -0.0216667 0
0.0733333 -0.0216667 0
0.07 -0.0216667 0
0.0666667 -0.0216667 0
0.0633333 -0.0216667 0
0.06 -0.0216667 0
0.0566667 -0.0216667 0
0.0533333 -0.0216667 0
0.05 -0.0216667 0
0.0466667 -0.0216667 0
0.0433333 -0.0216667 0
0.04 -0.0216667 0
0.0366667 -0.0216667 0
0.0333333 -0.0216667 0
0.03 -0.0216667 0
0.0266667 -0.0216667 0
0.0233333 -0.0216667 0
0.02 -0.0216667 0
0.0166667 -0.0216667 0
0.0133333 -0.0216667 0
0.01 -0.0216667 0
0.00666667 -0.0216667 0
0.00333333 -0.0216667 0
0 -0.0216667 0
0.1 -0.025 0
0.0966667 -0.025 0
0.0933333 -0.025 0
0.09 -0.025 0
0.0866667 -0.025 0
0.0833333 -0.025 0
0.08 -0.025 0
0.0766667 -0.025 0
0.0733333 -0.025 0
0.07 -0.025 0
0.0666667 -0.025 0
0.0633333 -0.025 0
0.06 -0.025 0
0.0566667 -0.025 0
0.0533333 -0.025 0
0.05 -0.025 0
0.0466667 -0.025 0
0.0433333 -0.025 0
0.04 -0.025 0
0.0366667 -0.025 0
0.0333333 -0.025 0
0.03 -0.025 0
0.0266667 -0.025 0
0.0233333 -0.025 0
0.02 -0.025 0
0.0166667 -0.025 0
0.0133333 -0.025 0
0.01 -0.025 0
0.00666667 -0.025 0
0.00333333 -0.025 0
0 -0.025 0
0.1 -0.0283333 0
0.0966667 -0.0283333 0
0.0933333 -0.0283333 0
0.09 -0.0283333 0
0.0866667 -0.0283333 0
0.0833333 -0.0283333 0
0.08 -0.0283333 0
0.0766667 -0.0283333 0
0.0733333 -0.0283333 0
0.07 -0.0283333 0
0.0666667 -0.0283333 0
0.0633333 -0.0283333 0
0.06 -0.0283333 0
0.0566667 -0.0283333 0
0.0533333 -0.0283333 0
0.05 -0.0283333 0
0.0466667 -0.0283333 0
0.0433333 -0.0283333 0
0.04 -0.0283333 0
0.0366667 -0.0283333 0
0.0333333 -0.0283333 0
0.03 -0.0283333 0
0.0266667 -0.0283333 0
0.0233333 -0.0283333 0
0.02 -0.0283333 0
0.0166667 -0.0283333 0
0.0133333 -0.0283333 0
0.01 -0.0283333 0
0.00666667 -0.0283333 0
0.00333333 -0.0283333 0
0 -0.0283333 0
0.1 -0.0316667 0
0.0966667 -0.0316667 0
0.0933333 -0.0316667 0
0.09 -0.0316667 0
0.0866667 -0.0316667 0
0.0833333 -0.0316667 0
0.08 -0.0316667 0
0.0766667 -0.0316667 0
0.0733333 -0.0316667 0
0.07 -0.0316667 0
0.0666667 -0.0316667 0
0.0633333 -0.0316667 0
0.06 -0.0316667 0
0.0566667 -0.0316667 0
0.0533333 -0.0316667 0
0.05 -0.0316667 0
0.0466667 -0.0316667 0
0.0433333 -0.0316667 0
0.04 -0.0316667 0
0.0366667 -0.0316667 0
0.0333333 -0.0316667 0
0.03 -0.0316667 0
0.0266667 -0.0316667 0
0.0233333 -0.0316667 0
0.02 -0.0316667 0
0.0166667 -0.0316667 0
0.0133333 -0.0316667 0
0.01 -0.0316667 0
0.00666667 -0.0316667 0
0.00333333 -0.0316667 0
0 -0.0316667 0
0.1 -0.035 0
0.0966667 -0.035 0
0.0933333 -0.035 0
0.09 -0.035 0
0.0866667 -0.035 0
0.0833333 -0.035 0
0.08 -0.035 0
0.0766667 -0.035 0
0.0733333 -0.035 0
0.07 -0.035 0
0.0666667 -0.035 0
0.0633333 -0.035 0
0.06 -0.035 0
0.0566667 -0.035 0
0.0533333 -0.035 0
0.05 -0.035 0
0.0466667 -0.035 0
0.0433333 -0.035 0
0.04 -0.035 0
0.0366667 -0.035 0
0.0333333 -0.035 0
0.03 -0.035 0
0.0266667 -0.035 0
0.0233333 -0.035 0
0.02 -0.035 0
0.0166667 -0.035 0
0.0133333 -0.035 0
0.01 -0.035 0
0.00666667 -0.035 0
0.00333333 -0.035 0
0 -0.035 0
0.1 -0.0383333 0
0.0966667 -0.0383333 0
0.0933333 -0.0383333 0
0.09 -0.0383333 0
0.0866667 -0.0383333 0
0.0833333 -0.0383333 0
0.08 -0.0383333 0
0.0766667 -0.0383333 0
0.0733333 -0.0383333 0
0.07 -0.0383333 0
0.0666667 -0.0383333 0
0.0633333 -0.0383333 0
0.06 -0.0383333 0
0.0566667 -0.0383333 0
0.0533333 -0.0383333 0
0.05 -0.0383333 0
0.0466667 -0.0383333 0
0.0433333 -0.0383333 0
0.04 -0.0383333 0
0.0366667 -0.0383333 0
0.0333333 -0.0383333 0
0.03 -0.0383333 0
0.0266667 -0.0383333 0
0.0233333 -0.0383333 0
0.02 -0.0383333 0
0.0166667 -0.0383333 0
0.0133333 -0.0383333 0
0.01 -0.0383333 0
0.00666667 -0.0383333 0
0.00333333 -0.0383333 0
0 -0.0383333 0
0.1 -0.0416667 0
0.0966667 -0.0416667 0
0.0933333 -0.0416667 0
0.09 -0.0416667 0
0.0866667 -0.0416667 0
0.0833333 -0.0416667 0
0.08 -0.0416667 0
0.0766667 -0.0416667 0
0.0733333 -0.0416667 0
0.07 -0.0416667 0
0.0666667 -0.0416667 0
0.0633333 -0.0416667 0
0.06 -0.0416667 0
0.0566667 -0.0416667 0
0.0533333 -0.0416667 0
0.05 -0.0416667 0
0.0466667 -0.0416667 0
0.0433333 -0.0416667 0
0.04 -0.0416667 0
0.0366667 -0.0416667 0
0.0333333 -0.0416667 0
0.03 -0.0416667 0
0.0266667 -0.0416667 0
0.0233333 -0.0416667 0
0.02 -0.0416667 0
0.0166667 -0.0416667 0
0.0133333 -0.0416667 0
0.01 -0.0416667 0
0.00666667 -0.0416667 0
0.00333333 -0.0416667 0
0 -0.0416667 0
0.1 -0.045 0
0.0966667 -0.045 0
0.0933333 -0.045 0
0.09 -0.045 0
0.0866667 -0.045 0
0.0833333 -0.045 0
0.08 -0.045 0
0.0766667 -0.045 0
0.0733333 -0.045 0
0.07 -0.045 0
0.0666667 -0.045 0
0.0633333 -0.045 0
0.06 -0.045 0
0.0566667 -0.045 0
0.0533333 -0.045 0
0.05 -0.045 0
0.0466667 -0.045 0
0.0433333 -0.045 0
0.04 -0.045 0
0.0366667 -0.045 0
0.0333333 -0.045 0
0.03 -0.045 0
0.0266667 -0.045 0
0.0233333 -0.045 0
0.02 -0.045 0
0.0166667 -0.045 0
0.0133333 -0.045 0
0.01 -0.045 0
0.00666667 -0.045 0
0.00333333 -0.045 0
0 -0.045 0
0.1 -0.0483333 0
0.0966667 -0.0483333 0
0.0933333 -0.0483333 0
0.09 -0.0483333 0
0.0866667 -0.0483333 0
[...]
POINT_DATA 961
SCALARS Temp float 1
LOOKUP_TABLE default
1093.712917
1089.580391
1085.691792
1082.055697
1078.680134
1075.572574
1072.739868
1070.188286
1067.923454
1065.950384
1064.273429
1062.896291
1061.822018
1061.052982
1060.590878
1060.436731
1060.590879
1061.052982
1061.822020
1062.896294
1064.273428
1065.950386
1067.923458
1070.188288
1072.739873
1075.572575
1078.680139
1082.055699
1085.691797
1089.580403
1093.712927
1089.580397
1085.287194
1081.247401
1077.469932
1073.963124
1070.734740
1067.791896
1065.141107
1062.788216
1060.738431
1058.996275
1057.565594
1056.449552
1055.650615
1055.170544
1055.010403
1055.170545
1055.650615
1056.449554
1057.565596
1058.996275
1060.738434
1062.788220
1065.141109
1067.791902
1070.734741
1073.963129
1077.469934
1081.247406
1085.287205
1089.580404
1085.691793
1081.247397
1077.065335
1073.154836
1069.524531
1066.182453
1063.135972
1060.391831
1057.956079
1055.834108
1054.030599
1052.549534
1051.394189
1050.567115
1050.070139
1049.904358
1050.070139
1050.567116
1051.394191
1052.549536
1054.030599
1055.834111
1057.956084
1060.391833
1063.135978
1066.182454
1069.524535
1073.154838
1077.065340
1081.247407
1085.691798
1082.055695
1077.469924
1073.154833
1069.119942
1065.374158
1061.925770
1058.782382
1055.950951
1053.437719
1051.248248
1049.387370
1047.859193
1046.667097
1045.813715
1045.300929
1045.129875
1045.300930
1045.813715
1046.667099
1047.859195
1049.387370
1051.248251
1053.437723
1055.950953
1058.782388
1061.925771
1065.374163
1069.119943
1073.154837
1077.469934
1082.055699
1078.680135
1073.963120
1069.524531
1065.374162
1061.521173
1057.974093
1054.740741
1051.828274
1049.243114
1046.990981
1045.076845
1043.504931
1042.278717
1041.400911
1040.873450
1040.697500
1040.873450
1041.400911
1042.278719
1043.504933
1045.076844
1046.990983
1049.243118
1051.828276
1054.740747
1057.974094
1061.521178
1065.374163
1069.524535
1073.963129
1078.680139
1075.572573
1070.734733
1066.182451
1061.925772
1057.974090
1054.336153
1051.019980
1048.032911
1045.381532
1043.071712
1041.108546
1039.496368
1038.238745
1037.338454
1036.797483
1036.617026
1036.797483
1037.338455
1038.238747
1039.496370
1041.108545
1043.071714
1045.381537
1048.032913
1051.019985
1054.336153
1057.974095
1061.925772
1066.182455
1070.734742
1075.572576
1072.739871
1067.791893
1063.135974
1058.782388
1054.740742
1051.019984
1047.628315
1044.573243
1041.861504
1039.499098
1037.491239
1035.842358
1034.556104
1033.635318
1033.082030
1032.897465
1033.082030
1033.635318
1034.556106
1035.842361
1037.491238
1039.499101
1041.861508
1044.573245
1047.628321
1051.019984
1054.740747
1058.782388
1063.135978
1067.791902
1072.739874
1070.188287
1065.141102
1060.391831
1055.950954
1051.828273
1048.032913
1044.573241
1041.456914
1038.690803
1036.281031
1034.232914
1032.550973
1031.238930
1030.299681
1029.735300
1029.547035
1029.735300
1030.299682
1031.238932
1032.550976
1034.232913
1036.281034
1038.690808
1041.456916
1044.573246
1048.032913
1051.828277
1055.950954
1060.391834
1065.141110
1070.188290
1067.923456
1062.788213
1057.956081
1053.437724
1049.243115
1045.381537
1041.861503
1038.690806
1035.876435
1033.424619
1031.340769
1029.629483
1028.294548
1027.338913
1026.764685
1026.573134
1026.764685
1027.338913
1028.294550
1029.629485
1031.340768
1033.424622
1035.876439
1038.690808
1041.861509
1045.381537
1049.243119
1053.437724
1057.956085
1062.788221
1067.923459
1065.950384
1060.738426
1055.834107
1051.248251
1046.990979
1043.071713
1039.499095
1036.281031
1033.424616
1030.936173
1028.821192
1027.084342
1025.729465
1024.759553
1024.176747
1023.982335
1024.176747
1024.759553
1025.729467
1027.084344
1028.821191
1030.936176
1033.424621
1036.281033
1039.499100
1043.071713
1046.990983
1051.248251
1055.834111
1060.738434
1065.950386
1064.273427
1058.996268
1054.030596
1049.387372
1045.076841
1041.108545
1037.491233
1034.232912
1031.340763
1028.821190
1026.679751
1024.921172
1023.549346
1022.567300
1021.977203
1021.780359
1021.977203
1022.567301
1023.549348
1024.921175
1026.679750
1028.821193
1031.340768
1034.232913
1037.491239
1041.108545
1045.076845
1049.387371
1054.030600
1058.996276
1064.273430
1062.896292
1057.565588
1052.549533
1047.859197
1043.504930
1039.496370
1035.842355
1032.550974
1029.629480
1027.084342
1024.921175
1023.144753
1021.759008
1020.766998
1020.170914
1019.972073
1020.170914
1020.766999
1021.759010
1023.144756
1024.921174
1027.084345
1029.629485
1032.550975
1035.842361
1039.496370
1043.504934
1047.859196
1052.549537
1057.565597
1062.896294
1061.822019
1056.449546
1051.394188
1046.667100
1042.278716
1038.238747
1034.556101
1031.238930
1028.294545
1025.729465
1023.549348
1021.759007
1020.362404
1019.362621
1018.761866
1018.561467
1018.761867
1019.362622
1020.362406
1021.759010
1023.549347
1025.729468
1028.294550
1031.238932
1034.556107
1038.238747
1042.278720
1046.667100
1051.394191
1056.449555
1061.822021
1061.052981
1055.650608
1050.567114
1045.813717
1041.400908
1037.338455
1033.635314
1030.299680
1027.338909
1024.759552
1022.567302
1020.766997
1019.362620
1018.357273
1017.753175
1017.551661
1017.753175
1018.357274
1019.362622
1020.766999
1022.567301
1024.759555
1027.338913
1030.299682
1033.635319
1037.338455
1041.400913
1045.813717
1050.567117
1055.650616
1061.052983
1060.590878
1055.170538
1050.070137
1045.300932
1040.873447
1036.797484
1033.082026
1029.735299
1026.764681
1024.176746
1021.977205
1020.170912
1018.761865
1017.753175
1017.147068
1016.944883
1017.147068
1017.753176
1018.761868
1020.170915
1021.977204
1024.176749
1026.764686
1029.735301
1033.082032
1036.797484
1040.873452
1045.300932
1050.070141
1055.170546
1060.590880
1060.436730
1055.010396
1049.904356
1045.129878
1040.697498
1036.617027
1032.897461
1029.547034
1026.573131
1023.982334
1021.780361
1019.972071
1018.561466
1017.551661
1016.944883
1016.742475
1016.944883
1017.551661
1018.561469
1019.972074
1021.780360
1023.982337
1026.573136
1029.547036
1032.897467
1036.617027
1040.697502
1045.129877
1049.904360
1055.010405
1060.436733
1060.590878
1055.170538
1050.070137
1045.300932
1040.873447
1036.797484
1033.082026
1029.735299
1026.764681
1024.176746
1021.977205
1020.170912
1018.761865
1017.753175
1017.147068
1016.944883
1017.147068
1017.753176
1018.761868
1020.170915
1021.977204
1024.176749
1026.764686
1029.735301
1033.082032
1036.797484
1040.873452
1045.300932
1050.070141
1055.170546
1060.590881
1061.052981
1055.650608
1050.567114
1045.813717
1041.400908
1037.338455
1033.635314
1030.299680
1027.338909
1024.759552
1022.567302
1020.766997
1019.362620
1018.357274
1017.753175
1017.551661
1017.753175
1018.357274
1019.362623
1020.767000
1022.567301
1024.759555
1027.338914
1030.299682
1033.635320
1037.338456
1041.400913
1045.813717
1050.567118
1055.650617
1061.052984
1061.822018
1056.449546
1051.394188
1046.667100
1042.278715
1038.238747
1034.556101
1031.238930
1028.294545
1025.729465
1023.549348
1021.759008
1020.362404
1019.362622
1018.761867
1018.561468
1018.761867
1019.362622
1020.362406
1021.759011
1023.549348
1025.729468
1028.294551
1031.238932
1034.556108
1038.238748
1042.278721
1046.667101
1051.394192
1056.449555
1061.822022
1062.896292
1057.565588
1052.549533
1047.859197
1043.504930
1039.496370
1035.842355
1032.550974
1029.629480
1027.084342
1024.921175
1023.144754
1021.759008
1020.766999
1020.170914
1019.972073
1020.170915
1020.766999
1021.759010
1023.144757
1024.921175
1027.084346
1029.629486
1032.550976
1035.842362
1039.496371
1043.504935
1047.859197
1052.549538
1057.565598
1062.896295
1064.273428
1058.996268
1054.030597
1049.387373
1045.076842
1041.108546
1037.491234
1034.232913
1031.340765
1028.821191
1026.679752
1024.921173
1023.549347
1022.567302
1021.977205
1021.780361
1021.977205
1022.567303
1023.549350
1024.921177
1026.679752
1028.821195
1031.340770
1034.232916
1037.491241
1041.108548
1045.076848
1049.387373
1054.030602
1058.996278
1064.273432
1065.950382
1060.738424
1055.834106
1051.248250
1046.990978
1043.071712
1039.499094
1036.281030
1033.424615
1030.936172
1028.821191
1027.084341
1025.729464
1024.759552
1024.176746
1023.982334
1024.176747
1024.759553
1025.729466
1027.084344
1028.821191
1030.936176
1033.424621
1036.281033
1039.499101
1043.071714
1046.990984
1051.248251
1055.834111
1060.738434
1065.950387
1067.923457
1062.788214
1057.956082
1053.437725
1049.243116
1045.381538
1041.861505
1038.690808
1035.876437
1033.424621
1031.340770
1029.629485
1028.294550
1027.338915
1026.764687
1026.573137
1026.764687
1027.338916
1028.294553
1029.629488
1031.340771
1033.424625
1035.876442
1038.690811
1041.861512
1045.381540
1049.243122
1053.437727
1057.956088
1062.788224
1067.923462
1070.188285
1065.141100
1060.391829
1055.950952
1051.828271
1048.032911
1044.573239
1041.456912
1038.690802
1036.281030
1034.232913
1032.550972
1031.238929
1030.299680
1029.735299
1029.547034
1029.735300
1030.299681
1031.238931
1032.550975
1034.232913
1036.281034
1038.690808
1041.456916
1044.573247
1048.032914
1051.828278
1055.950955
1060.391835
1065.141111
1070.188290
1072.739872
1067.791895
1063.135976
1058.782390
1054.740745
1051.019986
1047.628318
1044.573246
1041.861507
1039.499101
1037.491242
1035.842362
1034.556108
1033.635322
1033.082034
1032.897469
1033.082035
1033.635322
1034.556111
1035.842365
1037.491242
1039.499105
1041.861513
1044.573250
1047.628326
1051.019989
1054.740752
1058.782393
1063.135983
1067.791907
1072.739879
1075.572572
1070.734732
1066.182450
1061.925771
1057.974089
1054.336152
1051.019979
1048.032911
1045.381532
1043.071712
1041.108546
1039.496368
1038.238746
1037.338455
1036.797484
1036.617027
1036.797484
1037.338456
1038.238748
1039.496372
1041.108547
1043.071716
1045.381539
1048.032915
1051.019988
1054.336156
1057.974097
1061.925775
1066.182458
1070.734745
1075.572579
1078.680131
1073.963116
1069.524527
1065.374158
1061.521169
1057.974089
1054.740738
1051.828271
1049.243110
1046.990978
1045.076842
1043.504928
1042.278714
1041.400908
1040.873447
1040.697498
1040.873448
1041.400909
1042.278717
1043.504932
1045.076842
1046.990982
1049.243117
1051.828276
1054.740746
1057.974093
1061.521178
1065.374163
1069.524536
1073.963130
1078.680140
1082.055694
1077.469924
1073.154832
1069.119942
1065.374158
1061.925771
1058.782383
1055.950952
1053.437720
1051.248250
1049.387372
1047.859195
1046.667099
1045.813717
1045.300932
1045.129878
1045.300932
1045.813718
1046.667102
1047.859199
1049.387373
1051.248254
1053.437727
1055.950957
1058.782392
1061.925775
1065.374167
1069.119948
1073.154843
1077.469939
1082.055704
1085.691788
1081.247392
1077.065331
1073.154832
1069.524527
1066.182450
1063.135969
1060.391828
1057.956077
1055.834106
1054.030597
1052.549531
1051.394187
1050.567113
1050.070137
1049.904356
1050.070138
1050.567115
1051.394189
1052.549535
1054.030598
1055.834110
1057.956083
1060.391833
1063.135978
1066.182455
1069.524536
1073.154839
1077.065342
1081.247409
1085.691801
1089.580396
1085.287193
1081.247401
1077.469933
1073.963126
1070.734743
1067.791899
1065.141110
1062.788220
1060.738435
1058.996279
1057.565598
1056.449556
1055.650619
1055.170549
1055.010408
1055.170550
1055.650620
1056.449559
1057.565602
1058.996280
1060.738440
1062.788226
1065.141115
1067.791908
1070.734748
1073.963136
1077.469941
1081.247414
1085.287214
1089.580414
1093.712910
1089.580385
1085.691788
1082.055694
1078.680132
1075.572572
1072.739867
1070.188285
1067.923453
1065.950383
1064.273428
1062.896291
1061.822018
1061.052981
1060.590878
1060.436731
1060.590879
1061.052982
1061.822020
1062.896294
1064.273429
1065.950387
1067.923459
1070.188290
1072.739875
1075.572577
1078.680142
1082.055702
1085.691801
1089.580409
1093.712935
