# vtk DataFile Version 2.0
Unstructured Grid Example
ASCII
DATASET UNSTRUCTURED_GRID

POINTS 961 float
0.1 0.005 0
0.0966667 0.005 0
0.0933333 0.005 0
0.09 0.005 0
0.0866667 0.005 0
0.0833333 0.005 0
0.08 0.005 0
0.0766667 0.005 0
0.0733333 0.005 0
0.07 0.005 0
0.0666667 0.005 0
0.0633333 0.005 0
0.06 0.005 0
0.0566667 0.005 0
0.0533333 0.005 0
0.05 0.005 0
0.0466667 0.005 0
0.0433333 0.005 0
0.04 0.005 0
0.0366667 0.005 0
0.0333333 0.005 0
0.03 0.005 0
0.0266667 0.005 0
0.0233333 0.005 0
0.02 0.005 0
0.0166667 0.005 0
0.0133333 0.005 0
0.01 0.005 0
0.00666667 0.005 0
0.00333333 0.005 0
0 0.005 0
0.1 0.00166667 0
0.0966667 0.00166667 0
0.0933333 0.00166667 0
0.09 0.00166667 0
0.0866667 0.00166667 0
0.0833333 0.00166667 0
0.08 0.00166667 0
0.0766667 0.00166667 0
0.0733333 0.00166667 0
0.07 0.00166667 0
0.0666667 0.00166667 0
0.0633333 0.00166667 0
0.06 0.00166667 0
0.0566667 0.00166667 0
0.0533333 0.00166667 0
0.05 0.00166667 0
0.0466667 0.00166667 0
0.0433333 0.00166667 0
0.04 0.00166667 0
0.0366667 0.00166667 0
0.0333333 0.00166667 0
0.03 0.00166667 0
0.0266667 0.00166667 0
0.0233333 0.00166667 0
0.02 0.00166667 0
0.0166667 0.00166667 0
0.0133333 0.00166667 0
0.01 0.00166667 0
0.00666667 0.00166667 0
0.00333333 0.00166667 0
0 0.00166667 0
0.1 -0.00166667 0
0.0966667 -0.00166667 0
0.0933333 -0.00166667 0
0.09 -0.00166667 0
0.0866667 -0.00166667 0
0.0833333 -0.00166667 0
0.08 -0.00166667 0
0.0766667 -0.00166667 0
0.0733333 -0.00166667 0
0.07 -0.00166667 0
0.0666667 -0.00166667 0
0.0633333 -0.00166667 0
0.06 -0.00166667 0
0.0566667 -0.00166667 0
0.0533333 -0.00166667 0
0.05 -0.00166667 0
0.0466667 -0.00166667 0
0.0433333 -0.00166667 0
0.04 -0.00166667 0
0.0366667 -0.00166667 0
0.0333333 -0.00166667 0
0.03 -0.00166667 0
0.0266667 -0.00166667 0
0.0233333 -0.00166667 0
0.02 -0.00166667 0
0.0166667 -0.00166667 0
0.0133333 -0.00166667 0
0.01 -0.00166667 0
0.00666667 -0.00166667 0
0.00333333 -0.00166667 0
0 -0.00166667 0
0.1 -0.005 0
0.0966667 -0.005 0
0.0933333 -0.005 0
0.09 -0.005 0
0.0866667 -0.005 0
0.0833333 -0.005 0
0.08 -0.005 0
0.0766667 -0.005 0
0.0733333 -0.005 0
0.07 -0.005 0
0.0666667 -0.005 0
0.0633333 -0.005 0
0.06 -0.005 0
0.0566667 -0.005 0
0.0533333 -0.005 0
0.05 -0.005 0
0.0466667 -0.005 0
0.0433333 -0.005 0
0.04 -0.005 0
0.0366667 -0.005 0
0.0333333 -0.005 0
0.03 -0.005 0
0.0266667 -0.005 0
0.0233333 -0.005 0
0.02 -0.005 0
0.0166667 -0.005 0
0.0133333 -0.005 0
0.01 -0.005 0
0.00666667 -0.005 0
0.00333333 -0.005 0
0 -0.005 0
0.1 -0.00833333 0
0.0966667 -0.00833333 0
0.0933333 -0.00833333 0
0.09 -0.00833333 0
0.0866667 -0.00833333 0
0.0833333 -0.00833333 0
0.08 -0.00833333 0
0.0766667 -0.00833333 0
0.0733333 -0.00833333 0
0.07 -0.00833333 0
0.0666667 -0.00833333 0
0.0633333 -0.00833333 0
0.06 -0.00833333 0
0.0566667 -0.00833333 0
0.0533333 -0.00833333 0
0.05 -0.00833333 0
0.0466667 -0.00833333 0
0.0433333 -0.00833333 0
0.04 -0.00833333 0
0.0366667 -0.00833333 0
0.0333333 -0.00833333 0
0.03 -0.00833333 0
0.0266667 -0.00833333 0
0.0233333 -0.00833333 0
0.02 -0.00833333 0
0.0166667 -0.00833333 0
0.0133333 -0.00833333 0
0.01 -0.00833333 0
0.00666667 -0.00833333 0
0.00333333 -0.00833333 0
0 -0.00833333 0
0.1 -0.0116667 0
0.0966667 -0.0116667 0
0.0933333 -0.0116667 0
0.09 -0.0116667 0
0.0866667 -0.0116667 0
0.0833333 -0.0116667 0
0.08 -0.0116667 0
0.0766667 -0.0116667 0
0.0733333 -0.0116667 0
0.07 -0.0116667 0
0.0666667 -0.0116667 0
0.0633333 -0.0116667 0
0.06 -0.0116667 0
0.0566667 -0.0116667 0
0.0533333 -0.0116667 0
0.05 -0.0116667 0
0.0466667 -0.0116667 0
0.0433333 -0.0116667 0
0.04 -0.0116667 0
0.0366667 -0.0116667 0
0.0333333 -0.0116667 0
0.03 -0.0116667 0
0.0266667 -0.0116667 0
0.0233333 -0.0116667 0
0.02 -0.0116667 0
0.0166667 -0.0116667 0
0.0133333 -0.0116667 0
0.01 -0.0116667 0
0.00666667 -0.0116667 0
0.00333333 -0.0116667 0
0 -0.0116667 0
0.1 -0.015 0
0.0966667 -0.015 0
0.0933333 -0.015 0
0.09 -0.015 0
0.0866667 -0.015 0
0.0833333 -0.015 0
0.08 -0.015 0
0.0766667 -0.015 0
0.0733333 -0.015 0
0.07 -0.015 0
0.0666667 -0.015 0
0.0633333 -0.015 0
0.06 -0.015 0
0.0566667 -0.015 0
0.0533333 -0.015 0
0.05 -0.015 0
0.0466667 -0.015 0
0.0433333 -0.015 0
0.04 -0.015 0
0.0366667 -0.015 0
0.0333333 -0.015 0
0.03 -0.015 0
0.0266667 -0.015 0
0.0233333 -0.015 0
0.02 -0.015 0
0.0166667 -0.015 0
0.0133333 -0.015 0
0.01 -0.015 0
0.00666667 -0.015 0
0.00333333 -0.015 0
0 -0.015 0
0.1 -0.0183333 0
0.0966667 -0.0183333 0
0.0933333 -0.0183333 0
0.09 -0.0183333 0
0.0866667 -0.0183333 0
0.0833333 -0.0183333 0
0.08 -0.0183333 0
0.0766667 -0.0183333 0
0.0733333 -0.0183333 0
0.07 -0.0183333 0
0.0666667 -0.0183333 0
0.0633333 -0.0183333 0
0.06 -0.0183333 0
0.0566667 -0.0183333 0
0.0533333 -0.0183333 0
0.05 -0.0183333 0
0.0466667 -0.0183333 0
0.0433333 -0.0183333 0
0.04 -0.0183333 0
0.0366667 -0.0183333 0
0.0333333 -0.0183333 0
0.03 -0.0183333 0
0.0266667 -0.0183333 0
0.0233333 -0.0183333 0
0.02 -0.0183333 0
0.0166667 -0.0183333 0
0.0133333 -0.0183333 0
0.01 -0.0183333 0
0.00666667 -0.0183333 0
0.00333333 -0.0183333 0
0 -0.0183333 0
0.1 -0.0216667 0
0.0966667 -0.0216667 0
0.0933333 -0.0216667 0
0.09 -0.0216667 0
0.0866667 -0.0216667 0
0.0833333 -0.0216667 0
0.08 -0.0216667 0
0.0766667 -0.0216667 0
0.0733333 -0.0216667 0
0.07 -0.0216667 0
0.0666667 -0.0216667 0
0.0633333 -0.0216667 0
0.06 -0.0216667 0
0.0566667 -0.0216667 0
0.0533333 -0.0216667 0
0.05 -0.0216667 0
0.0466667 -0.0216667 0
0.0433333 -0.0216667 0
0.04 -0.0216667 0
0.0366667 -0.0216667 0
0.0333333 -0.0216667 0
0.03 -0.0216667 0
0.0266667 -0.0216667 0
0.0233333 -0.0216667 0
0.02 -0.0216667 0
0.0166667 -0.0216667 0
0.0133333 -0.0216667 0
0.01 -0.0216667 0
0.00666667 -0.0216667 0
0.00333333 -0.0216667 0
0 -0.0216667 0
0.1 -0.025 0
0.0966667 -0.025 0
0.0933333 -0.025 0
0.09 -0.025 0
0.0866667 -0.025 0
0.0833333 -0.025 0
0.08 -0.025 0
0.0766667 -0.025 0
0.0733333 -0.025 0
0.07 -0.025 0
0.0666667 -0.025 0
0.0633333 -0.025 0
0.06 -0.025 0
0.0566667 -0.025 0
0.0533333 -0.025 0
0.05 -0.025 0
0.0466667 -0.025 0
0.0433333 -0.025 0
0.04 -0.025 0
0.0366667 -0.025 0
0.0333333 -0.025 0
0.03 -0.025 0
0.0266667 -0.025 0
0.0233333 -0.025 0
0.02 -0.025 0
0.0166667 -0.025 0
0.0133333 -0.025 0
0.01 -0.025 0
0.00666667 -0.025 0
0.00333333 -0.025 0
0 -0.025 0
0.1 -0.0283333 0
0.0966667 -0.0283333 0
0.0933333 -0.0283333 0
0.09 -0.0283333 0
0.0866667 -0.0283333 0
0.0833333 -0.0283333 0
0.08 -0.0283333 0
0.0766667 -0.0283333 0
0.0733333 -0.0283333 0
0.07 -0.0283333 0
0.0666667 -0.0283333 0
0.0633333 -0.0283333 0
0.06 -0.0283333 0
0.0566667 -0.0283333 0
0.0533333 -0.0283333 0
0.05 -0.0283333 0
0.0466667 -0.0283333 0
0.0433333 -0.0283333 0
0.04 -0.0283333 0
0.0366667 -0.0283333 0
0.0333333 -0.0283333 0
0.03 -0.0283333 0
0.0266667 -0.0283333 0
0.0233333 -0.0283333 0
0.02 -0.0283333 0
0.0166667 -0.0283333 0
0.0133333 -0.0283333 0
0.01 -0.0283333 0
0.00666667 -0.0283333 0
0.00333333 -0.0283333 0
0 -0.0283333 0
0.1 -0.0316667 0
0.0966667 -0.0316667 0
0.0933333 -0.0316667 0
0.09 -0.0316667 0
0.0866667 -0.0316667 0
0.0833333 -0.0316667 0
0.08 -0.0316667 0
0.0766667 -0.0316667 0
0.0733333 -0.0316667 0
0.07 -0.0316667 0
0.0666667 -0.0316667 0
0.0633333 -0.0316667 0
0.06 -0.0316667 0
0.0566667 -0.0316667 0
0.0533333 -0.0316667 0
0.05 -0.0316667 0
0.0466667 -0.0316667 0
0.0433333 -0.0316667 0
0.04 -0.0316667 0
0.0366667 -0.0316667 0
0.0333333 -0.0316667 0
0.03 -0.0316667 0
0.0266667 -0.0316667 0
0.0233333 -0.0316667 0
0.02 -0.0316667 0
0.0166667 -0.0316667 0
0.0133333 -0.0316667 0
0.01 -0.0316667 0
0.00666667 -0.0316667 0
0.00333333 -0.0316667 0
0 -0.0316667 0
0.1 -0.035 0
0.0966667 -0.035 0
0.0933333 -0.035 0
0.09 -0.035 0
0.0866667 -0.035 0
0.0833333 -0.035 0
0.08 -0.035 0
0.0766667 -0.035 0
0.0733333 -0.035 0
0.07 -0.035 0
0.0666667 -0.035 0
0.0633333 -0.035 0
0.06 -0.035 0
0.0566667 -0.035 0
0.0533333 -0.035 0
0.05 -0.035 0
0.0466667 -0.035 0
0.0433333 -0.035 0
0.04 -0.035 0
0.0366667 -0.035 0
0.0333333 -0.035 0
0.03 -0.035 0
0.0266667 -0.035 0
0.0233333 -0.035 0
0.02 -0.035 0
0.0166667 -0.035 0
0.0133333 -0.035 0
0.01 -0.035 0
0.00666667 -0.035 0
0.00333333 -0.035 0
0 -0.035 0
0.1 -0.0383333 0
0.0966667 -0.0383333 0
0.0933333 -0.0383333 0
0.09 -0.0383333 0
0.0866667 -0.0383333 0
0.0833333 -0.0383333 0
0.08 -0.0383333 0
0.0766667 -0.0383333 0
0.0733333 -0.0383333 0
0.07 -0.0383333 0
0.0666667 -0.0383333 0
0.0633333 -0.0383333 0
0.06 -0.0383333 0
0.0566667 -0.0383333 0
0.0533333 -0.0383333 0
0.05 -0.0383333 0
0.0466667 -0.0383333 0
0.0433333 -0.0383333 0
0.04 -0.0383333 0
0.0366667 -0.0383333 0
0.0333333 -0.0383333 0
0.03 -0.0383333 0
0.0266667 -0.0383333 0
0.0233333 -0.0383333 0
0.02 -0.0383333 0
0.0166667 -0.0383333 0
0.0133333 -0.0383333 0
0.01 -0.0383333 0
0.00666667 -0.0383333 0
0.00333333 -0.0383333 0
0 -0.0383333 0
0.1 -0.0416667 0
0.0966667 -0.0416667 0
0.0933333 -0.0416667 0
0.09 -0.0416667 0
0.0866667 -0.0416667 0
0.0833333 -0.0416667 0
0.08 -0.0416667 0
0.0766667 -0.0416667 0
0.0733333 -0.0416667 0
0.07 -0.0416667 0
0.0666667 -0.0416667 0
0.0633333 -0.0416667 0
0.06 -0.0416667 0
0.0566667 -0.0416667 0
0.0533333 -0.0416667 0
0.05 -0.0416667 0
0.0466667 -0.0416667 0
0.0433333 -0.0416667 0
0.04 -0.0416667 0
0.0366667 -0.0416667 0
0.0333333 -0.0416667 0
0.03 -0.0416667 0
0.0266667 -0.0416667 0
0.0233333 -0.0416667 0
0.02 -0.0416667 0
0.0166667 -0.0416667 0
0.0133333 -0.0416667 0
0.01 -0.0416667 0
0.00666667 -0.0416667 0
0.00333333 -0.0416667 0
0 -0.0416667 0
0.1 -0.045 0
0.0966667 -0.045 0
0.0933333 -0.045 0
0.09 -0.045 0
0.0866667 -0.045 0
0.0833333 -0.045 0
0.08 -0.045 0
0.0766667 -0.045 0
0.0733333 -0.045 0
0.07 -0.045 0
0.0666667 -0.045 0
0.0633333 -0.045 0
0.06 -0.045 0
0.0566667 -0.045 0
0.0533333 -0.045 0
0.05 -0.045 0
0.0466667 -0.045 0
0.0433333 -0.045 0
0.04 -0.045 0
0.0366667 -0.045 0
0.0333333 -0.045 0
0.03 -0.045 0
0.0266667 -0.045 0
0.0233333 -0.045 0
0.02 -0.045 0
0.0166667 -0.045 0
0.0133333 -0.045 0
0.01 -0.045 0
0.00666667 -0.045 0
0.00333333 -0.045 0
0 -0.045 0
0.1 -0.0483333 0
0.0966667 -0.0483333 0
0.0933333 -0.0483333 0
0.09 -0.0483333 0
0.0866667 -0.0483333 0
[...]
POINT_DATA 961
SCALARS Temp float 1
LOOKUP_TABLE default
804.166109
788.777644
774.301352
760.769042
748.210281
736.652405
726.120289
716.636531
708.221251
700.892249
694.664875
689.552097
685.564534
682.710409
680.995587
680.423590
680.995588
682.710411
685.564539
689.552105
694.664872
700.892257
708.221264
716.636537
726.120307
736.652407
748.210298
760.769047
774.301372
788.777688
804.166144
788.777667
772.790953
757.751872
743.693479
730.646484
718.639283
707.697719
697.845271
689.102837
681.488913
675.019443
669.707901
665.565316
662.600235
660.818748
660.224513
660.818748
662.600236
665.565322
669.707909
675.019440
681.488921
689.102851
697.845277
707.697738
718.639285
730.646501
743.693484
757.751892
772.790992
788.777690
774.301356
757.751858
742.183352
727.630057
714.123766
701.693873
690.367132
680.167846
671.117651
663.235692
656.538476
651.039951
646.751535
643.682073
641.837871
641.222718
641.837872
643.682074
646.751541
651.039959
656.538473
663.235700
671.117665
680.167852
690.367151
701.693875
714.123782
727.630061
742.183369
757.751892
774.301373
760.769033
743.693451
727.630044
712.614121
698.678484
685.853463
674.166661
663.643154
654.305266
646.172751
639.262641
633.589325
629.164586
625.997551
624.094725
623.460016
624.094725
625.997552
629.164592
633.589334
639.262637
646.172760
654.305281
663.643160
674.166680
685.853464
698.678500
712.614123
727.630060
743.693483
760.769047
748.210287
730.646469
714.123768
698.678500
684.344406
671.152684
659.131725
648.307324
638.702441
630.337396
623.229707
617.394176
612.842922
609.585333
607.628100
606.975243
607.628101
609.585334
612.842929
617.394185
623.229703
630.337405
638.702456
648.307329
659.131744
671.152684
684.344422
698.678500
714.123782
730.646500
748.210299
736.652401
718.639258
701.693865
685.853468
671.152673
657.623473
645.294988
634.193671
624.343072
615.764028
608.474506
602.489688
597.822001
594.481075
592.473771
591.804212
592.473771
594.481076
597.822008
602.489697
608.474502
615.764037
624.343087
634.193677
645.295007
657.623473
671.152688
685.853468
701.693878
718.639288
736.652411
726.120298
707.697708
690.367139
674.166682
659.131730
645.295005
632.686288
621.332632
611.258123
602.484073
595.028857
588.908000
584.134214
580.717346
578.664415
577.979637
578.664416
580.717348
584.134221
588.908009
595.028852
602.484081
611.258138
621.332637
632.686306
645.295004
659.131745
674.166680
690.367151
707.697738
726.120308
716.636532
697.845250
680.167843
663.643166
648.307319
634.193678
621.332621
609.751744
599.475613
590.525967
582.921549
576.678194
571.808870
568.323620
566.229604
565.531121
566.229604
568.323621
571.808877
576.678203
582.921544
590.525975
599.475628
609.751749
621.332640
634.193677
648.307333
663.643164
680.167854
697.845279
716.636541
708.221260
689.102825
671.117657
654.305288
638.702446
624.343089
611.258123
599.475623
589.020586
579.915128
572.178317
565.826267
560.872168
557.326240
555.195767
554.485124
555.195767
557.326241
560.872175
565.826276
572.178312
579.915136
589.020601
599.475628
611.258141
624.343087
638.702460
654.305285
671.117668
689.102854
708.221268
700.892249
681.488891
663.235689
646.172764
630.337391
615.764035
602.484062
590.525966
579.915116
570.673958
562.821845
556.375129
551.347198
547.748425
545.586201
544.864967
545.586201
547.748426
551.347205
556.375138
562.821840
570.673966
579.915131
590.525971
602.484081
615.764032
630.337404
646.172760
663.235699
681.488920
700.892257
694.664869
675.019414
656.538466
639.262646
623.229694
608.474506
595.028837
582.921540
572.178298
562.821836
554.871751
548.344599
543.253935
539.610259
537.421056
536.690824
537.421057
539.610260
543.253941
548.344608
554.871746
562.821845
572.178313
582.921545
595.028856
608.474503
623.229708
639.262642
656.538476
675.019443
694.664876
689.552100
669.707881
651.039950
633.589340
617.394173
602.489697
588.907991
576.678197
565.826258
556.375131
548.344610
541.751419
536.609249
532.928707
530.717355
529.979734
530.717356
532.928708
536.609255
541.751428
548.344605
556.375140
565.826273
576.678201
588.908010
602.489695
617.394187
633.589336
651.039960
669.707910
689.552107
685.564535
665.565295
646.751533
629.164600
612.842918
597.822010
584.134204
571.808872
560.872158
551.347200
543.253945
536.609248
531.426907
527.717614
525.488987
524.745604
525.488987
527.717615
531.426914
536.609257
543.253940
551.347209
560.872174
571.808876
584.134223
597.822007
612.842932
629.164596
646.751543
665.565325
685.564543
682.710408
662.600210
643.682067
625.997561
609.585325
594.481079
580.717332
568.323617
557.326226
547.748422
539.610265
532.928702
527.717609
523.987736
521.746744
520.999237
521.746745
523.987737
527.717616
532.928711
539.610260
547.748431
557.326241
568.323622
580.717352
594.481076
609.585339
625.997557
643.682078
662.600240
682.710415
680.995586
660.818723
641.837866
624.094736
607.628092
592.473775
578.664401
566.229601
555.195753
545.586199
537.421063
530.717350
525.488983
521.746745
519.498325
518.748339
519.498325
521.746747
525.488990
530.717360
537.421058
545.586208
555.195769
566.229606
578.664421
592.473773
607.628107
624.094732
641.837877
660.818753
680.995594
680.423589
660.224489
641.222713
623.460027
606.975236
591.804217
577.979624
565.531119
554.485111
544.864965
536.690831
529.979730
524.745600
520.999238
518.748340
517.997528
518.748340
520.999240
524.745608
529.979740
536.690826
544.864975
554.485127
565.531124
577.979644
591.804216
606.975251
623.460024
641.222724
660.224519
680.423597
680.995586
660.818723
641.837866
624.094735
607.628092
592.473775
578.664401
566.229601
555.195753
545.586199
537.421063
530.717351
525.488983
521.746745
519.498325
518.748339
519.498326
521.746747
525.488991
530.717361
537.421059
545.586208
555.195770
566.229607
578.664422
592.473774
607.628107
624.094732
641.837878
660.818754
680.995595
682.710407
662.600210
643.682067
625.997561
609.585325
594.481079
580.717332
568.323617
557.326226
547.748422
539.610265
532.928702
527.717610
523.987737
521.746745
520.999238
521.746746
523.987738
527.717617
532.928712
539.610261
547.748432
557.326243
568.323623
580.717353
594.481078
609.585341
625.997559
643.682080
662.600242
682.710417
685.564535
665.565295
646.751532
629.164600
612.842918
597.822009
584.134204
571.808872
560.872158
551.347200
543.253945
536.609248
531.426908
527.717615
525.488988
524.745605
525.488989
527.717617
531.426916
536.609259
543.253942
551.347211
560.872176
571.808878
584.134226
597.822010
612.842935
629.164599
646.751546
665.565327
685.564545
689.552099
669.707880
651.039949
633.589340
617.394173
602.489697
588.907991
576.678197
565.826258
556.375132
548.344611
541.751420
536.609250
532.928709
530.717357
529.979736
530.717358
532.928711
536.609258
541.751430
548.344608
556.375143
565.826276
576.678204
588.908014
602.489698
617.394191
633.589340
651.039964
669.707913
689.552111
694.664871
675.019417
656.538469
639.262649
623.229697
608.474509
595.028841
582.921544
572.178302
562.821841
554.871756
548.344604
543.253940
539.610265
537.421063
536.690830
537.421064
539.610267
543.253949
548.344616
554.871754
562.821853
572.178321
582.921553
595.028865
608.474511
623.229716
639.262650
656.538485
675.019451
694.664884
700.892244
681.488886
663.235684
646.172759
630.337386
615.764030
602.484057
590.525962
579.915112
570.673954
562.821841
556.375125
551.347195
547.748422
545.586198
544.864965
545.586199
547.748424
551.347204
556.375137
562.821839
570.673966
579.915132
590.525971
602.484081
615.764033
630.337406
646.172762
663.235701
681.488922
700.892259
708.221263
689.102828
671.117660
654.305292
638.702450
624.343093
611.258127
599.475629
589.020592
579.915134
572.178324
565.826274
560.872176
557.326248
555.195775
554.485133
555.195777
557.326251
560.872185
565.826286
572.178323
579.915147
589.020612
599.475639
611.258153
624.343099
638.702472
654.305297
671.117680
689.102866
708.221279
716.636525
697.845243
680.167836
663.643159
648.307312
634.193671
621.332615
609.751738
599.475607
590.525962
582.921544
576.678190
571.808866
568.323616
566.229600
565.531118
566.229602
568.323619
571.808875
576.678202
582.921543
590.525975
599.475628
609.751750
621.332642
634.193679
648.307335
663.643166
680.167857
697.845282
716.636544
726.120304
707.697714
690.367145
674.166690
659.131738
645.295014
632.686297
621.332642
611.258134
602.484085
595.028869
588.908013
584.134228
580.717360
578.664430
577.979653
578.664432
580.717364
584.134237
588.908025
595.028869
602.484099
611.258156
621.332655
632.686325
645.295023
659.131764
674.166700
690.367170
707.697756
726.120326
736.652397
718.639254
701.693861
685.853465
671.152670
657.623471
645.294987
634.193671
624.343072
615.764029
608.474508
602.489690
597.822004
594.481078
592.473774
591.804216
592.473776
594.481081
597.822013
602.489703
608.474509
615.764044
624.343094
634.193685
645.295016
657.623482
671.152698
685.853478
701.693889
718.639299
736.652422
748.210272
730.646454
714.123753
698.678485
684.344392
671.152670
659.131712
648.307311
638.702429
630.337385
623.229696
617.394166
612.842912
609.585323
607.628091
606.975235
607.628093
609.585327
612.842922
617.394179
623.229698
630.337400
638.702452
648.307326
659.131742
671.152683
684.344422
698.678502
714.123784
730.646503
748.210302
760.769030
743.693448
727.630042
712.614120
698.678485
685.853465
674.166664
663.643158
654.305272
646.172758
639.262648
633.589333
629.164594
625.997560
624.094734
623.460026
624.094736
625.997563
629.164604
633.589346
639.262650
646.172773
654.305295
663.643174
674.166695
685.853480
698.678517
712.614141
727.630079
743.693503
760.769066
774.301338
757.751840
742.183335
727.630042
714.123752
701.693860
690.367120
680.167835
671.117641
663.235682
656.538467
651.039942
646.751527
643.682065
641.837865
641.222711
641.837866
643.682069
646.751536
651.039955
656.538470
663.235698
671.117664
680.167851
690.367151
701.693877
714.123786
727.630066
742.183377
757.751903
774.301383
788.777664
772.790951
757.751874
743.693484
730.646491
718.639292
707.697730
697.845283
689.102850
681.488927
675.019458
669.707916
665.565333
662.600252
660.818765
660.224531
660.818767
662.600256
665.565342
669.707929
675.019461
681.488942
689.102873
697.845299
707.697761
718.639309
730.646526
743.693511
757.751922
772.791025
788.777729
804.166082
788.777622
774.301338
760.769031
748.210273
736.652398
726.120283
716.636526
708.221247
700.892246
694.664872
689.552095
685.564532
682.710409
680.995587
680.423590
680.995589
682.710412
685.564541
689.552107
694.664875
700.892261
708.221269
716.636542
726.120313
736.652415
748.210307
760.769058
774.301387
788.777709
804.166176
