# vtk DataFile Version 2.0
Unstructured Grid Example
ASCII
DATASET UNSTRUCTURED_GRID

POINTS 961 float
0.1 0.005 0
0.0966667 0.005 0
0.0933333 0.005 0
0.09 0.005 0
0.0866667 0.005 0
0.0833333 0.005 0
0.08 0.005 0
0.0766667 0.005 0
0.0733333 0.005 0
0.07 0.005 0
0.0666667 0.005 0
0.0633333 0.005 0
0.06 0.005 0
0.0566667 0.005 0
0.0533333 0.005 0
0.05 0.005 0
0.0466667 0.005 0
0.0433333 0.005 0
0.04 0.005 0
0.0366667 0.005 0
0.0333333 0.005 0
0.03 0.005 0
0.0266667 0.005 0
0.0233333 0.005 0
0.02 0.005 0
0.0166667 0.005 0
0.0133333 0.005 0
0.01 0.005 0
0.00666667 0.005 0
0.00333333 0.005 0
0 0.005 0
0.1 0.00166667 0
0.0966667 0.00166667 0
0.0933333 0.00166667 0
0.09 0.00166667 0
0.0866667 0.00166667 0
0.0833333 0.00166667 0
0.08 0.00166667 0
0.0766667 0.00166667 0
0.0733333 0.00166667 0
0.07 0.00166667 0
0.0666667 0.00166667 0
0.0633333 0.00166667 0
0.06 0.00166667 0
0.0566667 0.00166667 0
0.0533333 0.00166667 0
0.05 0.00166667 0
0.0466667 0.00166667 0
0.0433333 0.00166667 0
0.04 0.00166667 0
0.0366667 0.00166667 0
0.0333333 0.00166667 0
0.03 0.00166667 0
0.0266667 0.00166667 0
0.0233333 0.00166667 0
0.02 0.00166667 0
0.0166667 0.00166667 0
0.0133333 0.00166667 0
0.01 0.00166667 0
0.00666667 0.00166667 0
0.00333333 0.00166667 0
0 0.00166667 0
0.1 -0.00166667 0
0.0966667 -0.00166667 0
0.0933333 -0.00166667 0
0.09 -0.00166667 0
0.0866667 -0.00166667 0
0.0833333 -0.00166667 0
0.08 -0.00166667 0
0.0766667 -0.00166667 0
0.0733333 -0.00166667 0
0.07 -0.00166667 0
0.0666667 -0.00166667 0
0.0633333 -0.00166667 0
0.06 -0.00166667 0
0.0566667 -0.00166667 0
0.0533333 -0.00166667 0
0.05 -0.00166667 0
0.0466667 -0.00166667 0
0.0433333 -0.00166667 0
0.04 -0.00166667 0
0.0366667 -0.00166667 0
0.0333333 -0.00166667 0
0.03 -0.00166667 0
0.0266667 -0.00166667 0
0.0233333 -0.00166667 0
0.02 -0.00166667 0
0.0166667 -0.00166667 0
0.0133333 -0.00166667 0
0.01 -0.00166667 0
0.00666667 -0.00166667 0
0.00333333 -0.00166667 0
0 -0.00166667 0
0.1 -0.005 0
0.0966667 -0.005 0
0.0933333 -0.005 0
0.09 -0.005 0
0.0866667 -0.005 0
0.0833333 -0.005 0
0.08 -0.005 0
0.0766667 -0.005 0
0.0733333 -0.005 0
0.07 -0.005 0
0.0666667 -0.005 0
0.0633333 -0.005 0
0.06 -0.005 0
0.0566667 -0.005 0
0.0533333 -0.005 0
0.05 -0.005 0
0.0466667 -0.005 0
0.0433333 -0.005 0
0.04 -0.005 0
0.0366667 -0.005 0
0.0333333 -0.005 0
0.03 -0.005 0
0.0266667 -0.005 0
0.0233333 -0.005 0
0.02 -0.005 0
0.0166667 -0.005 0
0.0133333 -0.005 0
0.01 -0.005 0
0.00666667 -0.005 0
0.00333333 -0.005 0
0 -0.005 0
0.1 -0.00833333 0
0.0966667 -0.00833333 0
0.0933333 -0.00833333 0
0.09 -0.00833333 0
0.0866667 -0.00833333 0
0.0833333 -0.00833333 0
0.08 -0.00833333 0
0.0766667 -0.00833333 0
0.0733333 -0.00833333 0
0.07 -0.00833333 0
0.0666667 -0.00833333 0
0.0633333 -0.00833333 0
0.06 -0.00833333 0
0.0566667 -0.00833333 0
0.0533333 -0.00833333 0
0.05 -0.00833333 0
0.0466667 -0.00833333 0
0.0433333 -0.00833333 0
0.04 -0.00833333 0
0.0366667 -0.00833333 0
0.0333333 -0.00833333 0
0.03 -0.00833333 0
0.0266667 -0.00833333 0
0.0233333 -0.00833333 0
0.02 -0.00833333 0
0.0166667 -0.00833333 0
0.0133333 -0.00833333 0
0.01 -0.00833333 0
0.00666667 -0.00833333 0
0.00333333 -0.00833333 0
0 -0.00833333 0
0.1 -0.0116667 0
0.0966667 -0.0116667 0
0.0933333 -0.0116667 0
0.09 -0.0116667 0
0.0866667 -0.0116667 0
0.0833333 -0.0116667 0
0.08 -0.0116667 0
0.0766667 -0.0116667 0
0.0733333 -0.0116667 0
0.07 -0.0116667 0
0.0666667 -0.0116667 0
0.0633333 -0.0116667 0
0.06 -0.0116667 0
0.0566667 -0.0116667 0
0.0533333 -0.0116667 0
0.05 -0.0116667 0
0.0466667 -0.0116667 0
0.0433333 -0.0116667 0
0.04 -0.0116667 0
0.0366667 -0.0116667 0
0.0333333 -0.0116667 0
0.03 -0.0116667 0
0.0266667 -0.0116667 0
0.0233333 -0.0116667 0
0.02 -0.0116667 0
0.0166667 -0.0116667 0
0.0133333 -0.0116667 0
0.01 -0.0116667 0
0.00666667 -0.0116667 0
0.00333333 -0.0116667 0
0 -0.0116667 0
0.1 -0.015 0
0.0966667 -0.015 0
0.0933333 -0.015 0
0.09 -0.015 0
0.0866667 -0.015 0
0.0833333 -0.015 0
0.08 -0.015 0
0.0766667 -0.015 0
0.0733333 -0.015 0
0.07 -0.015 0
0.0666667 -0.015 0
0.0633333 -0.015 0
0.06 -0.015 0
0.0566667 -0.015 0
0.0533333 -0.015 0
0.05 -0.015 0
0.0466667 -0.015 0
0.0433333 -0.015 0
0.04 -0.015 0
0.0366667 -0.015 0
0.0333333 -0.015 0
0.03 -0.015 0
0.0266667 -0.015 0
0.0233333 -0.015 0
0.02 -0.015 0
0.0166667 -0.015 0
0.0133333 -0.015 0
0.01 -0.015 0
0.00666667 -0.015 0
0.00333333 -0.015 0
0 -0.015 0
0.1 -0.0183333 0
0.0966667 -0.0183333 0
0.0933333 -0.0183333 0
0.09 -0.0183333 0
0.0866667 -0.0183333 0
0.0833333 -0.0183333 0
0.08 -0.0183333 0
0.0766667 -0.0183333 0
0.0733333 -0.0183333 0
0.07 -0.0183333 0
0.0666667 -0.0183333 0
0.0633333 -0.0183333 0
0.06 -0.0183333 0
0.0566667 -0.0183333 0
0.0533333 -0.0183333 0
0.05 -0.0183333 0
0.0466667 -0.0183333 0
0.0433333 -0.0183333 0
0.04 -0.0183333 0
0.0366667 -0.0183333 0
0.0333333 -0.0183333 0
0.03 -0.0183333 0
0.0266667 -0.0183333 0
0.0233333 -0.0183333 0
0.02 -0.0183333 0
0.0166667 -0.0183333 0
0.0133333 -0.0183333 0
0.01 -0.0183333 0
0.00666667 -0.0183333 0
0.00333333 -0.0183333 0
0 -0.0183333 0
0.1 -0.0216667 0
0.0966667 -0.0216667 0
0.0933333 -0.0216667 0
0.09 -0.0216667 0
0.0866667 -0.0216667 0
0.0833333 -0.0216667 0
0.08 -0.0216667 0
0.0766667 -0.0216667 0
0.0733333 -0.0216667 0
0.07 -0.0216667 0
0.0666667 -0.0216667 0
0.0633333 -0.0216667 0
0.06 -0.0216667 0
0.0566667 -0.0216667 0
0.0533333 -0.0216667 0
0.05 -0.0216667 0
0.0466667 -0.0216667 0
0.0433333 -0.0216667 0
0.04 -0.0216667 0
0.0366667 -0.0216667 0
0.0333333 -0.0216667 0
0.03 -0.0216667 0
0.0266667 -0.0216667 0
0.0233333 -0.0216667 0
0.02 -0.0216667 0
0.0166667 -0.0216667 0
0.0133333 -0.0216667 0
0.01 -0.0216667 0
0.00666667 -0.0216667 0
0.00333333 -0.0216667 0
0 -0.0216667 0
0.1 -0.025 0
0.0966667 -0.025 0
0.0933333 -0.025 0
0.09 -0.025 0
0.0866667 -0.025 0
0.0833333 -0.025 0
0.08 -0.025 0
0.0766667 -0.025 0
0.0733333 -0.025 0
0.07 -0.025 0
0.0666667 -0.025 0
0.0633333 -0.025 0
0.06 -0.025 0
0.0566667 -0.025 0
0.0533333 -0.025 0
0.05 -0.025 0
0.0466667 -0.025 0
0.0433333 -0.025 0
0.04 -0.025 0
0.0366667 -0.025 0
0.0333333 -0.025 0
0.03 -0.025 0
0.0266667 -0.025 0
0.0233333 -0.025 0
0.02 -0.025 0
0.0166667 -0.025 0
0.0133333 -0.025 0
0.01 -0.025 0
0.00666667 -0.025 0
0.00333333 -0.025 0
0 -0.025 0
0.1 -0.0283333 0
0.0966667 -0.0283333 0
0.0933333 -0.0283333 0
0.09 -0.0283333 0
0.0866667 -0.0283333 0
0.0833333 -0.0283333 0
0.08 -0.0283333 0
0.0766667 -0.0283333 0
0.0733333 -0.0283333 0
0.07 -0.0283333 0
0.0666667 -0.0283333 0
0.0633333 -0.0283333 0
0.06 -0.0283333 0
0.0566667 -0.0283333 0
0.0533333 -0.0283333 0
0.05 -0.0283333 0
0.0466667 -0.0283333 0
0.0433333 -0.0283333 0
0.04 -0.0283333 0
0.0366667 -0.0283333 0
0.0333333 -0.0283333 0
0.03 -0.0283333 0
0.0266667 -0.0283333 0
0.0233333 -0.0283333 0
0.02 -0.0283333 0
0.0166667 -0.0283333 0
0.0133333 -0.0283333 0
0.01 -0.0283333 0
0.00666667 -0.0283333 0
0.00333333 -0.0283333 0
0 -0.0283333 0
0.1 -0.0316667 0
0.0966667 -0.0316667 0
0.0933333 -0.0316667 0
0.09 -0.0316667 0
0.0866667 -0.0316667 0
0.0833333 -0.0316667 0
0.08 -0.0316667 0
0.0766667 -0.0316667 0
0.0733333 -0.0316667 0
0.07 -0.0316667 0
0.0666667 -0.0316667 0
0.0633333 -0.0316667 0
0.06 -0.0316667 0
0.0566667 -0.0316667 0
0.0533333 -0.0316667 0
0.05 -0.0316667 0
0.0466667 -0.0316667 0
0.0433333 -0.0316667 0
0.04 -0.0316667 0
0.0366667 -0.0316667 0
0.0333333 -0.0316667 0
0.03 -0.0316667 0
0.0266667 -0.0316667 0
0.0233333 -0.0316667 0
0.02 -0.0316667 0
0.0166667 -0.0316667 0
0.0133333 -0.0316667 0
0.01 -0.0316667 0
0.00666667 -0.0316667 0
0.00333333 -0.0316667 0
0 -0.0316667 0
0.1 -0.035 0
0.0966667 -0.035 0
0.0933333 -0.035 0
0.09 -0.035 0
0.0866667 -0.035 0
0.0833333 -0.035 0
0.08 -0.035 0
0.0766667 -0.035 0
0.0733333 -0.035 0
0.07 -0.035 0
0.0666667 -0.035 0
0.0633333 -0.035 0
0.06 -0.035 0
0.0566667 -0.035 0
0.0533333 -0.035 0
0.05 -0.035 0
0.0466667 -0.035 0
0.0433333 -0.035 0
0.04 -0.035 0
0.0366667 -0.035 0
0.0333333 -0.035 0
0.03 -0.035 0
0.0266667 -0.035 0
0.0233333 -0.035 0
0.02 -0.035 0
0.0166667 -0.035 0
0.0133333 -0.035 0
0.01 -0.035 0
0.00666667 -0.035 0
0.00333333 -0.035 0
0 -0.035 0
0.1 -0.0383333 0
0.0966667 -0.0383333 0
0.0933333 -0.0383333 0
0.09 -0.0383333 0
0.0866667 -0.0383333 0
0.0833333 -0.0383333 0
0.08 -0.0383333 0
0.0766667 -0.0383333 0
0.0733333 -0.0383333 0
0.07 -0.0383333 0
0.0666667 -0.0383333 0
0.0633333 -0.0383333 0
0.06 -0.0383333 0
0.0566667 -0.0383333 0
0.0533333 -0.0383333 0
0.05 -0.0383333 0
0.0466667 -0.0383333 0
0.0433333 -0.0383333 0
0.04 -0.0383333 0
0.0366667 -0.0383333 0
0.0333333 -0.0383333 0
0.03 -0.0383333 0
0.0266667 -0.0383333 0
0.0233333 -0.0383333 0
0.02 -0.0383333 0
0.0166667 -0.0383333 0
0.0133333 -0.0383333 0
0.01 -0.0383333 0
0.00666667 -0.0383333 0
0.00333333 -0.0383333 0
0 -0.0383333 0
0.1 -0.0416667 0
0.0966667 -0.0416667 0
0.0933333 -0.0416667 0
0.09 -0.0416667 0
0.0866667 -0.0416667 0
0.0833333 -0.0416667 0
0.08 -0.0416667 0
0.0766667 -0.0416667 0
0.0733333 -0.0416667 0
0.07 -0.0416667 0
0.0666667 -0.0416667 0
0.0633333 -0.0416667 0
0.06 -0.0416667 0
0.0566667 -0.0416667 0
0.0533333 -0.0416667 0
0.05 -0.0416667 0
0.0466667 -0.0416667 0
0.0433333 -0.0416667 0
0.04 -0.0416667 0
0.0366667 -0.0416667 0
0.0333333 -0.0416667 0
0.03 -0.0416667 0
0.0266667 -0.0416667 0
0.0233333 -0.0416667 0
0.02 -0.0416667 0
0.0166667 -0.0416667 0
0.0133333 -0.0416667 0
0.01 -0.0416667 0
0.00666667 -0.0416667 0
0.00333333 -0.0416667 0
0 -0.0416667 0
0.1 -0.045 0
0.0966667 -0.045 0
0.0933333 -0.045 0
0.09 -0.045 0
0.0866667 -0.045 0
0.0833333 -0.045 0
0.08 -0.045 0
0.0766667 -0.045 0
0.0733333 -0.045 0
0.07 -0.045 0
0.0666667 -0.045 0
0.0633333 -0.045 0
0.06 -0.045 0
0.0566667 -0.045 0
0.0533333 -0.045 0
0.05 -0.045 0
0.0466667 -0.045 0
0.0433333 -0.045 0
0.04 -0.045 0
0.0366667 -0.045 0
0.0333333 -0.045 0
0.03 -0.045 0
0.0266667 -0.045 0
0.0233333 -0.045 0
0.02 -0.045 0
0.0166667 -0.045 0
0.0133333 -0.045 0
0.01 -0.045 0
0.00666667 -0.045 0
0.00333333 -0.045 0
0 -0.045 0
0.1 -0.0483333 0
0.0966667 -0.0483333 0
0.0933333 -0.0483333 0
0.09 -0.0483333 0
0.0866667 -0.0483333 0
[...]
POINT_DATA 961
SCALARS Temp float 1
LOOKUP_TABLE default
583.188266
559.402186
537.423959
517.288436
499.007745
482.573008
467.956612
455.115781
443.996166
434.536275
426.671635
420.339144
415.481087
412.048587
410.004546
409.325821
410.004546
412.048588
415.481093
420.339153
426.671629
434.536283
443.996182
455.115786
467.956633
482.573008
499.007765
517.288440
537.423985
559.402250
583.188315
559.402222
534.698859
511.873038
490.960968
471.975236
454.906625
439.726461
426.390326
414.841778
405.016960
396.848918
390.272124
385.226639
381.661708
379.538802
378.833890
379.538802
381.661708
385.226645
390.272132
396.848912
405.016968
414.841793
426.390331
439.726484
454.906625
471.975256
490.960971
511.873064
534.698914
559.402252
537.423965
511.873015
488.263948
466.634220
446.996856
429.342335
413.641011
399.846955
387.901807
377.739537
369.290909
362.488163
357.269317
353.581885
351.386026
350.656889
351.386027
353.581885
357.269323
362.488171
369.290903
377.739546
387.901823
399.846960
413.641033
429.342334
446.996876
466.634220
488.263970
511.873064
537.423987
517.288424
490.960925
466.634200
444.346850
424.112309
405.920780
389.741738
375.527884
363.219111
352.747409
344.041465
337.031484
331.653625
327.853823
325.591042
324.839682
325.591042
327.853824
331.653631
337.031493
344.041458
352.747417
363.219128
375.527889
389.741761
405.920778
424.112328
444.346849
466.634219
490.960970
517.288440
499.007752
471.975213
446.996859
424.112332
403.335441
384.656150
368.043143
353.447890
340.808708
330.055802
321.115989
313.917636
308.395223
304.493262
302.169635
301.398070
302.169636
304.493263
308.395229
313.917645
321.115982
330.055811
340.808724
353.447894
368.043166
384.656146
403.335459
424.112328
446.996875
471.975255
499.007766
482.573002
454.906587
429.342323
405.920789
384.656134
365.538115
348.534718
333.596310
320.659809
309.653828
300.503509
293.135584
287.483029
283.489087
281.110675
280.320916
281.110675
283.489088
287.483036
293.135593
300.503502
309.653836
320.659825
333.596314
348.534739
365.538110
384.656151
405.920782
429.342337
454.906627
482.573013
467.956625
439.726443
413.641020
389.741769
368.043150
348.534741
331.183912
315.940067
302.738886
291.507578
282.169809
274.650863
268.882393
264.806518
262.379300
261.573334
262.379301
264.806518
268.882399
274.650872
282.169801
291.507586
302.738902
315.940070
331.183933
348.534735
368.043166
389.741761
413.641032
439.726482
467.956634
455.115783
426.390295
399.846951
375.527903
353.447883
333.596320
315.940053
300.427647
286.993704
275.564211
266.061549
258.409738
252.539276
248.391302
245.921137
245.100906
245.921137
248.391303
252.539282
258.409747
266.061540
275.564219
286.993720
300.427649
315.940074
333.596313
353.447898
375.527893
399.846962
426.390333
455.115790
443.996179
414.841758
387.901816
363.219142
340.808714
320.659832
302.738885
286.993718
273.358010
261.756699
252.111058
244.344026
238.385107
234.174597
231.667177
230.834573
231.667177
234.174598
238.385113
244.344035
252.111049
261.756706
273.358026
286.993719
302.738906
320.659824
340.808727
363.219131
387.901825
414.841795
443.996185
434.536277
405.016928
377.739533
352.747427
330.055795
309.653838
291.507563
275.564211
261.756684
250.009033
240.241600
232.376407
226.342119
222.078322
219.539155
218.696007
219.539155
222.078323
226.342126
232.376416
240.241591
250.009040
261.756700
275.564212
291.507583
309.653829
330.055808
352.747415
377.739542
405.016965
434.536282
426.671628
396.848877
369.290896
344.041475
321.115972
300.503510
282.169784
266.061538
252.111034
240.241590
230.372780
222.425871
216.328835
212.020669
209.455066
208.603139
209.455067
212.020669
216.328841
222.425880
230.372771
240.241597
252.111049
266.061539
282.169804
300.503500
321.115985
344.041462
369.290905
396.848914
426.671633
420.339149
390.272094
362.488162
337.031506
313.917632
293.135597
274.650851
258.409741
244.344015
232.376411
222.425885
214.413100
208.265474
203.921535
201.334617
200.475610
201.334617
203.921535
208.265480
214.413109
222.425876
232.376418
244.344030
258.409742
274.650872
293.135587
313.917645
337.031493
362.488170
390.272131
420.339153
415.481090
385.226608
357.269314
331.653646
308.395218
287.483041
268.882380
252.539278
238.385095
226.342122
216.328847
208.265473
202.078993
197.707577
195.104287
194.239842
195.104287
197.707577
202.078999
208.265482
216.328838
226.342129
238.385110
252.539279
268.882400
287.483031
308.395230
331.653632
357.269322
385.226644
415.481094
412.048586
381.661672
353.581878
327.853840
304.493252
283.489095
264.806500
248.391300
234.174580
222.078320
212.020677
203.921529
197.707572
193.316724
190.701855
189.833563
190.701855
193.316725
197.707579
203.921537
212.020667
222.078327
234.174595
248.391300
264.806520
283.489085
304.493264
327.853826
353.581886
381.661709
412.048590
410.004545
379.538767
351.386020
325.591059
302.169626
281.110683
262.379283
245.921135
231.667160
219.539153
209.455075
201.334612
195.104283
190.701856
188.080087
187.209503
188.080087
190.701856
195.104290
201.334621
209.455066
219.539160
231.667176
245.921136
262.379304
281.110673
302.169639
325.591046
351.386028
379.538804
410.004549
409.325821
378.833856
350.656884
324.839700
301.398062
280.320925
261.573317
245.100905
230.834558
218.696007
208.603149
200.475605
194.239839
189.833566
187.209505
186.338160
187.209505
189.833566
194.239845
200.475614
208.603139
218.696014
230.834573
245.100906
261.573338
280.320915
301.398075
324.839687
350.656892
378.833893
409.325825
410.004545
379.538767
351.386020
325.591059
302.169626
281.110683
262.379284
245.921135
231.667160
219.539153
209.455076
201.334612
195.104284
190.701857
188.080088
187.209504
188.080088
190.701857
195.104290
201.334621
209.455067
219.539161
231.667177
245.921136
262.379305
281.110674
302.169640
325.591047
351.386029
379.538805
410.004550
412.048586
381.661672
353.581878
327.853839
304.493252
283.489095
264.806500
248.391300
234.174580
222.078320
212.020677
203.921529
197.707573
193.316725
190.701856
189.833564
190.701856
193.316726
197.707580
203.921539
212.020669
222.078328
234.174597
248.391302
264.806522
283.489086
304.493266
327.853828
353.581888
381.661710
412.048592
415.481090
385.226608
357.269314
331.653645
308.395217
287.483041
268.882380
252.539278
238.385095
226.342123
216.328848
208.265474
202.078994
197.707578
195.104288
194.239843
195.104289
197.707579
202.079001
208.265484
216.328840
226.342131
238.385112
252.539281
268.882403
287.483034
308.395233
331.653635
357.269325
385.226647
415.481097
420.339148
390.272094
362.488161
337.031506
313.917632
293.135597
274.650852
258.409741
244.344016
232.376412
222.425886
214.413102
208.265476
203.921537
201.334619
200.475612
201.334620
203.921538
208.265483
214.413112
222.425879
232.376421
244.344034
258.409745
274.650875
293.135591
313.917649
337.031497
362.488174
390.272135
420.339157
426.671632
396.848881
369.290900
344.041479
321.115977
300.503514
282.169790
266.061544
252.111039
240.241596
230.372787
222.425878
216.328842
212.020676
209.455074
208.603147
209.455075
212.020678
216.328849
222.425888
230.372780
240.241606
252.111058
266.061549
282.169814
300.503510
321.115995
344.041472
369.290915
396.848923
426.671642
434.536271
405.016922
377.739527
352.747421
330.055789
309.653832
291.507558
275.564206
261.756679
250.009029
240.241596
232.376403
226.342116
222.078319
219.539151
218.696004
219.539152
222.078320
226.342124
232.376414
240.241590
250.009039
261.756699
275.564212
291.507584
309.653829
330.055810
352.747417
377.739544
405.016966
434.536284
443.996183
414.841762
387.901821
363.219148
340.808719
320.659838
302.738892
286.993725
273.358018
261.756707
252.111067
244.344036
238.385117
234.174608
231.667187
230.834584
231.667188
234.174609
238.385125
244.344047
252.111062
261.756719
273.358039
286.993733
302.738920
320.659838
340.808742
363.219146
387.901840
414.841809
443.996199
455.115774
426.390286
399.846942
375.527894
353.447875
333.596312
315.940045
300.427640
286.993697
275.564205
266.061543
258.409732
252.539271
248.391298
245.921132
245.100902
245.921133
248.391300
252.539279
258.409744
266.061538
275.564218
286.993719
300.427649
315.940075
333.596314
353.447900
375.527896
399.846965
426.390336
455.115793
467.956634
439.726453
413.641030
389.741780
368.043162
348.534754
331.183926
315.940082
302.738902
291.507595
282.169826
274.650881
268.882412
264.806537
262.379320
261.573354
262.379321
264.806539
268.882421
274.650894
282.169823
291.507608
302.738925
315.940094
331.183957
348.534759
368.043190
389.741786
413.641057
439.726507
467.956658
482.572998
454.906583
429.342319
405.920786
384.656132
365.538114
348.534717
333.596311
320.659810
309.653830
300.503512
293.135588
287.483033
283.489092
281.110680
280.320921
281.110681
283.489094
287.483042
293.135600
300.503510
309.653845
320.659834
333.596324
348.534750
365.538122
384.656163
405.920796
429.342351
454.906642
482.573027
499.007732
471.975192
446.996838
424.112312
403.335422
384.656131
368.043126
353.447873
340.808692
330.055787
321.115974
313.917622
308.395209
304.493249
302.169623
301.398058
302.169624
304.493251
308.395219
313.917635
321.115973
330.055802
340.808717
353.447888
368.043161
384.656143
403.335457
424.112328
446.996877
471.975258
499.007769
517.288421
490.960923
466.634199
444.346851
424.112312
405.920785
389.741745
375.527892
363.219120
352.747419
344.041476
337.031496
331.653637
327.853836
325.591055
324.839696
325.591057
327.853839
331.653647
337.031509
344.041475
352.747435
363.219146
375.527908
389.741781
405.920799
424.112351
444.346873
466.634245
490.960997
517.288467
537.423940
511.872990
488.263924
466.634198
446.996837
429.342318
413.640995
399.846940
387.901794
377.739524
369.290897
362.488151
357.269306
353.581874
351.386016
350.656880
351.386017
353.581877
357.269315
362.488164
369.290897
377.739540
387.901819
399.846957
413.641032
429.342335
446.996879
466.634227
488.263980
511.873077
537.424001
559.402219
534.698858
511.873042
490.960978
471.975249
454.906641
439.726479
426.390346
414.841799
405.016983
396.848942
390.272149
385.226665
381.661734
379.538829
378.833917
379.538830
381.661737
385.226674
390.272162
396.848942
405.016998
414.841824
426.390363
439.726517
454.906659
471.975293
490.961010
511.873107
534.698963
559.402310
583.188225
559.402154
537.423940
517.288422
499.007734
482.572999
467.956605
455.115776
443.996162
434.536272
426.671632
420.339142
415.481085
412.048586
410.004545
409.325821
410.004547
412.048589
415.481094
420.339155
426.671632
434.536287
443.996187
455.115793
467.956641
482.573018
499.007778
517.288456
537.424006
559.402279
583.188363
