# vtk DataFile Version 2.0
Unstructured Grid Example
ASCII
DATASET UNSTRUCTURED_GRID

POINTS 961 float
0.1 0.005 0
0.0966667 0.005 0
0.0933333 0.005 0
0.09 0.005 0
0.0866667 0.005 0
0.0833333 0.005 0
0.08 0.005 0
0.0766667 0.005 0
0.0733333 0.005 0
0.07 0.005 0
0.0666667 0.005 0
0.0633333 0.005 0
0.06 0.005 0
0.0566667 0.005 0
0.0533333 0.005 0
0.05 0.005 0
0.0466667 0.005 0
0.0433333 0.005 0
0.04 0.005 0
0.0366667 0.005 0
0.0333333 0.005 0
0.03 0.005 0
0.0266667 0.005 0
0.0233333 0.005 0
0.02 0.005 0
0.0166667 0.005 0
0.0133333 0.005 0
0.01 0.005 0
0.00666667 0.005 0
0.00333333 0.005 0
0 0.005 0
0.1 0.00166667 0
0.0966667 0.00166667 0
0.0933333 0.00166667 0
0.09 0.00166667 0
0.0866667 0.00166667 0
0.0833333 0.00166667 0
0.08 0.00166667 0
0.0766667 0.00166667 0
0.0733333 0.00166667 0
0.07 0.00166667 0
0.0666667 0.00166667 0
0.0633333 0.00166667 0
0.06 0.00166667 0
0.0566667 0.00166667 0
0.0533333 0.00166667 0
0.05 0.00166667 0
0.0466667 0.00166667 0
0.0433333 0.00166667 0
0.04 0.00166667 0
0.0366667 0.00166667 0
0.0333333 0.00166667 0
0.03 0.00166667 0
0.0266667 0.00166667 0
0.0233333 0.00166667 0
0.02 0.00166667 0
0.0166667 0.00166667 0
0.0133333 0.00166667 0
0.01 0.00166667 0
0.00666667 0.00166667 0
0.00333333 0.00166667 0
0 0.00166667 0
0.1 -0.00166667 0
0.0966667 -0.00166667 0
0.0933333 -0.00166667 0
0.09 -0.00166667 0
0.0866667 -0.00166667 0
0.0833333 -0.00166667 0
0.08 -0.00166667 0
0.0766667 -0.00166667 0
0.0733333 -0.00166667 0
0.07 -0.00166667 0
0.0666667 -0.00166667 0
0.0633333 -0.00166667 0
0.06 -0.00166667 0
0.0566667 -0.00166667 0
0.0533333 -0.00166667 0
0.05 -0.00166667 0
0.0466667 -0.00166667 0
0.0433333 -0.00166667 0
0.04 -0.00166667 0
0.0366667 -0.00166667 0
0.0333333 -0.00166667 0
0.03 -0.00166667 0
0.0266667 -0.00166667 0
0.0233333 -0.00166667 0
0.02 -0.00166667 0
0.0166667 -0.00166667 0
0.0133333 -0.00166667 0
0.01 -0.00166667 0
0.00666667 -0.00166667 0
0.00333333 -0.00166667 0
0 -0.00166667 0
0.1 -0.005 0
0.0966667 -0.005 0
0.0933333 -0.005 0
0.09 -0.005 0
0.0866667 -0.005 0
0.0833333 -0.005 0
0.08 -0.005 0
0.0766667 -0.005 0
0.0733333 -0.005 0
0.07 -0.005 0
0.0666667 -0.005 0
0.0633333 -0.005 0
0.06 -0.005 0
0.0566667 -0.005 0
0.0533333 -0.005 0
0.05 -0.005 0
0.0466667 -0.005 0
0.0433333 -0.005 0
0.04 -0.005 0
0.0366667 -0.005 0
0.0333333 -0.005 0
0.03 -0.005 0
0.0266667 -0.005 0
0.0233333 -0.005 0
0.02 -0.005 0
0.0166667 -0.005 0
0.0133333 -0.005 0
0.01 -0.005 0
0.00666667 -0.005 0
0.00333333 -0.005 0
0 -0.005 0
0.1 -0.00833333 0
0.0966667 -0.00833333 0
0.0933333 -0.00833333 0
0.09 -0.00833333 0
0.0866667 -0.00833333 0
0.0833333 -0.00833333 0
0.08 -0.00833333 0
0.0766667 -0.00833333 0
0.0733333 -0.00833333 0
0.07 -0.00833333 0
0.0666667 -0.00833333 0
0.0633333 -0.00833333 0
0.06 -0.00833333 0
0.0566667 -0.00833333 0
0.0533333 -0.00833333 0
0.05 -0.00833333 0
0.0466667 -0.00833333 0
0.0433333 -0.00833333 0
0.04 -0.00833333 0
0.0366667 -0.00833333 0
0.0333333 -0.00833333 0
0.03 -0.00833333 0
0.0266667 -0.00833333 0
0.0233333 -0.00833333 0
0.02 -0.00833333 0
0.0166667 -0.00833333 0
0.0133333 -0.00833333 0
0.01 -0.00833333 0
0.00666667 -0.00833333 0
0.00333333 -0.00833333 0
0 -0.00833333 0
0.1 -0.0116667 0
0.0966667 -0.0116667 0
0.0933333 -0.0116667 0
0.09 -0.0116667 0
0.0866667 -0.0116667 0
0.0833333 -0.0116667 0
0.08 -0.0116667 0
0.0766667 -0.0116667 0
0.0733333 -0.0116667 0
0.07 -0.0116667 0
0.0666667 -0.0116667 0
0.0633333 -0.0116667 0
0.06 -0.0116667 0
0.0566667 -0.0116667 0
0.0533333 -0.0116667 0
0.05 -0.0116667 0
0.0466667 -0.0116667 0
0.0433333 -0.0116667 0
0.04 -0.0116667 0
0.0366667 -0.0116667 0
0.0333333 -0.0116667 0
0.03 -0.0116667 0
0.0266667 -0.0116667 0
0.0233333 -0.0116667 0
0.02 -0.0116667 0
0.0166667 -0.0116667 0
0.0133333 -0.0116667 0
0.01 -0.0116667 0
0.00666667 -0.0116667 0
0.00333333 -0.0116667 0
0 -0.0116667 0
0.1 -0.015 0
0.0966667 -0.015 0
0.0933333 -0.015 0
0.09 -0.015 0
0.0866667 -0.015 0
0.0833333 -0.015 0
0.08 -0.015 0
0.0766667 -0.015 0
0.0733333 -0.015 0
0.07 -0.015 0
0.0666667 -0.015 0
0.0633333 -0.015 0
0.06 -0.015 0
0.0566667 -0.015 0
0.0533333 -0.015 0
0.05 -0.015 0
0.0466667 -0.015 0
0.0433333 -0.015 0
0.04 -0.015 0
0.0366667 -0.015 0
0.0333333 -0.015 0
0.03 -0.015 0
0.0266667 -0.015 0
0.0233333 -0.015 0
0.02 -0.015 0
0.0166667 -0.015 0
0.0133333 -0.015 0
0.01 -0.015 0
0.00666667 -0.015 0
0.00333333 -0.015 0
0 -0.015 0
0.1 -0.0183333 0
0.0966667 -0.0183333 0
0.0933333 -0.0183333 0
0.09 -0.0183333 0
0.0866667 -0.0183333 0
0.0833333 -0.0183333 0
0.08 -0.0183333 0
0.0766667 -0.0183333 0
0.0733333 -0.0183333 0
0.07 -0.0183333 0
0.0666667 -0.0183333 0
0.0633333 -0.0183333 0
0.06 -0.0183333 0
0.0566667 -0.0183333 0
0.0533333 -0.0183333 0
0.05 -0.0183333 0
0.0466667 -0.0183333 0
0.0433333 -0.0183333 0
0.04 -0.0183333 0
0.0366667 -0.0183333 0
0.0333333 -0.0183333 0
0.03 -0.0183333 0
0.0266667 -0.0183333 0
0.0233333 -0.0183333 0
0.02 -0.0183333 0
0.0166667 -0.0183333 0
0.0133333 -0.0183333 0
0.01 -0.0183333 0
0.00666667 -0.0183333 0
0.00333333 -0.0183333 0
0 -0.0183333 0
0.1 -0.0216667 0
0.0966667 -0.0216667 0
0.0933333 -0.0216667 0
0.09 -0.0216667 0
0.0866667 -0.0216667 0
0.0833333 -0.0216667 0
0.08 -0.0216667 0
0.0766667 -0.0216667 0
0.0733333 -0.0216667 0
0.07 -0.0216667 0
0.0666667 -0.0216667 0
0.0633333 -0.0216667 0
0.06 -0.0216667 0
0.0566667 -0.0216667 0
0.0533333 -0.0216667 0
0.05 -0.0216667 0
0.0466667 -0.0216667 0
0.0433333 -0.0216667 0
0.04 -0.0216667 0
0.0366667 -0.0216667 0
0.0333333 -0.0216667 0
0.03 -0.0216667 0
0.0266667 -0.0216667 0
0.0233333 -0.0216667 0
0.02 -0.0216667 0
0.0166667 -0.0216667 0
0.0133333 -0.0216667 0
0.01 -0.0216667 0
0.00666667 -0.0216667 0
0.00333333 -0.0216667 0
0 -0.0216667 0
0.1 -0.025 0
0.0966667 -0.025 0
0.0933333 -0.025 0
0.09 -0.025 0
0.0866667 -0.025 0
0.0833333 -0.025 0
0.08 -0.025 0
0.0766667 -0.025 0
0.0733333 -0.025 0
0.07 -0.025 0
0.0666667 -0.025 0
0.0633333 -0.025 0
0.06 -0.025 0
0.0566667 -0.025 0
0.0533333 -0.025 0
0.05 -0.025 0
0.0466667 -0.025 0
0.0433333 -0.025 0
0.04 -0.025 0
0.0366667 -0.025 0
0.0333333 -0.025 0
0.03 -0.025 0
0.0266667 -0.025 0
0.0233333 -0.025 0
0.02 -0.025 0
0.0166667 -0.025 0
0.0133333 -0.025 0
0.01 -0.025 0
0.00666667 -0.025 0
0.00333333 -0.025 0
0 -0.025 0
0.1 -0.0283333 0
0.0966667 -0.0283333 0
0.0933333 -0.0283333 0
0.09 -0.0283333 0
0.0866667 -0.0283333 0
0.0833333 -0.0283333 0
0.08 -0.0283333 0
0.0766667 -0.0283333 0
0.0733333 -0.0283333 0
0.07 -0.0283333 0
0.0666667 -0.0283333 0
0.0633333 -0.0283333 0
0.06 -0.0283333 0
0.0566667 -0.0283333 0
0.0533333 -0.0283333 0
0.05 -0.0283333 0
0.0466667 -0.0283333 0
0.0433333 -0.0283333 0
0.04 -0.0283333 0
0.0366667 -0.0283333 0
0.0333333 -0.0283333 0
0.03 -0.0283333 0
0.0266667 -0.0283333 0
0.0233333 -0.0283333 0
0.02 -0.0283333 0
0.0166667 -0.0283333 0
0.0133333 -0.0283333 0
0.01 -0.0283333 0
0.00666667 -0.0283333 0
0.00333333 -0.0283333 0
0 -0.0283333 0
0.1 -0.0316667 0
0.0966667 -0.0316667 0
0.0933333 -0.0316667 0
0.09 -0.0316667 0
0.0866667 -0.0316667 0
0.0833333 -0.0316667 0
0.08 -0.0316667 0
0.0766667 -0.0316667 0
0.0733333 -0.0316667 0
0.07 -0.0316667 0
0.0666667 -0.0316667 0
0.0633333 -0.0316667 0
0.06 -0.0316667 0
0.0566667 -0.0316667 0
0.0533333 -0.0316667 0
0.05 -0.0316667 0
0.0466667 -0.0316667 0
0.0433333 -0.0316667 0
0.04 -0.0316667 0
0.0366667 -0.0316667 0
0.0333333 -0.0316667 0
0.03 -0.0316667 0
0.0266667 -0.0316667 0
0.0233333 -0.0316667 0
0.02 -0.0316667 0
0.0166667 -0.0316667 0
0.0133333 -0.0316667 0
0.01 -0.0316667 0
0.00666667 -0.0316667 0
0.00333333 -0.0316667 0
0 -0.0316667 0
0.1 -0.035 0
0.0966667 -0.035 0
0.0933333 -0.035 0
0.09 -0.035 0
0.0866667 -0.035 0
0.0833333 -0.035 0
0.08 -0.035 0
0.0766667 -0.035 0
0.0733333 -0.035 0
0.07 -0.035 0
0.0666667 -0.035 0
0.0633333 -0.035 0
0.06 -0.035 0
0.0566667 -0.035 0
0.0533333 -0.035 0
0.05 -0.035 0
0.0466667 -0.035 0
0.0433333 -0.035 0
0.04 -0.035 0
0.0366667 -0.035 0
0.0333333 -0.035 0
0.03 -0.035 0
0.0266667 -0.035 0
0.0233333 -0.035 0
0.02 -0.035 0
0.0166667 -0.035 0
0.0133333 -0.035 0
0.01 -0.035 0
0.00666667 -0.035 0
0.00333333 -0.035 0
0 -0.035 0
0.1 -0.0383333 0
0.0966667 -0.0383333 0
0.0933333 -0.0383333 0
0.09 -0.0383333 0
0.0866667 -0.0383333 0
0.0833333 -0.0383333 0
0.08 -0.0383333 0
0.0766667 -0.0383333 0
0.0733333 -0.0383333 0
0.07 -0.0383333 0
0.0666667 -0.0383333 0
0.0633333 -0.0383333 0
0.06 -0.0383333 0
0.0566667 -0.0383333 0
0.0533333 -0.0383333 0
0.05 -0.0383333 0
0.0466667 -0.0383333 0
0.0433333 -0.0383333 0
0.04 -0.0383333 0
0.0366667 -0.0383333 0
0.0333333 -0.0383333 0
0.03 -0.0383333 0
0.0266667 -0.0383333 0
0.0233333 -0.0383333 0
0.02 -0.0383333 0
0.0166667 -0.0383333 0
0.0133333 -0.0383333 0
0.01 -0.0383333 0
0.00666667 -0.0383333 0
0.00333333 -0.0383333 0
0 -0.0383333 0
0.1 -0.0416667 0
0.0966667 -0.0416667 0
0.0933333 -0.0416667 0
0.09 -0.0416667 0
0.0866667 -0.0416667 0
0.0833333 -0.0416667 0
0.08 -0.0416667 0
0.0766667 -0.0416667 0
0.0733333 -0.0416667 0
0.07 -0.0416667 0
0.0666667 -0.0416667 0
0.0633333 -0.0416667 0
0.06 -0.0416667 0
0.0566667 -0.0416667 0
0.0533333 -0.0416667 0
0.05 -0.0416667 0
0.0466667 -0.0416667 0
0.0433333 -0.0416667 0
0.04 -0.0416667 0
0.0366667 -0.0416667 0
0.0333333 -0.0416667 0
0.03 -0.0416667 0
0.0266667 -0.0416667 0
0.0233333 -0.0416667 0
0.02 -0.0416667 0
0.0166667 -0.0416667 0
0.0133333 -0.0416667 0
0.01 -0.0416667 0
0.00666667 -0.0416667 0
0.00333333 -0.0416667 0
0 -0.0416667 0
0.1 -0.045 0
0.0966667 -0.045 0
0.0933333 -0.045 0
0.09 -0.045 0
0.0866667 -0.045 0
0.0833333 -0.045 0
0.08 -0.045 0
0.0766667 -0.045 0
0.0733333 -0.045 0
0.07 -0.045 0
0.0666667 -0.045 0
0.0633333 -0.045 0
0.06 -0.045 0
0.0566667 -0.045 0
0.0533333 -0.045 0
0.05 -0.045 0
0.0466667 -0.045 0
0.0433333 -0.045 0
0.04 -0.045 0
0.0366667 -0.045 0
0.0333333 -0.045 0
0.03 -0.045 0
0.0266667 -0.045 0
0.0233333 -0.045 0
0.02 -0.045 0
0.0166667 -0.045 0
0.0133333 -0.045 0
0.01 -0.045 0
0.00666667 -0.045 0
0.00333333 -0.045 0
0 -0.045 0
0.1 -0.0483333 0
0.0966667 -0.0483333 0
0.0933333 -0.0483333 0
0.09 -0.0483333 0
0.0866667 -0.0483333 0
[...]
POINT_DATA 961
SCALARS Temp float 1
LOOKUP_TABLE default
800.546153
785.017139
770.409002
756.753829
744.081427
732.419332
721.792586
712.223922
703.733560
696.339383
690.056795
684.898804
680.876056
677.996791
676.266881
675.689853
676.266882
677.996792
680.876062
684.898812
690.056792
696.339391
703.733574
712.223928
721.792605
732.419335
744.081444
756.753834
770.409022
785.017183
800.546188
785.017162
768.884442
753.708398
739.522372
726.357323
714.241857
703.201990
693.261337
684.440908
676.759278
670.232450
664.873940
660.694804
657.703606
655.906445
655.306985
655.906446
657.703607
660.694810
664.873948
670.232447
676.759286
684.440922
693.261343
703.202008
714.241859
726.357340
739.522377
753.708418
768.884481
785.017185
770.409006
753.708383
737.998112
723.312710
709.684226
697.142273
685.713781
675.423199
666.292274
658.340236
651.583652
646.036512
641.710263
638.613768
636.753344
636.132782
636.753345
638.613770
641.710269
646.036520
651.583648
658.340244
666.292289
675.423205
685.713800
697.142274
709.684243
723.312714
737.998130
753.708418
770.409023
756.753820
739.522343
723.312697
708.160496
694.098809
681.158191
669.366427
658.748743
649.327578
641.122771
634.151419
628.427954
623.964189
620.769268
618.849707
618.209419
618.849708
620.769269
623.964195
628.427963
634.151415
641.122780
649.327593
658.748749
669.366447
681.158192
694.098826
708.160498
723.312713
739.522376
756.753835
744.081433
726.357308
709.684228
694.098826
679.635115
666.324524
654.195634
643.274390
633.583873
625.144491
617.973827
612.086729
607.495344
604.209080
602.234639
601.576045
602.234639
604.209081
607.495350
612.086737
617.973823
625.144500
633.583888
643.274395
654.195653
666.324524
679.635131
694.098826
709.684242
726.357339
744.081445
732.419328
714.241832
697.142264
681.158197
666.324513
652.673445
640.234304
629.033701
619.095306
610.440050
603.085964
597.048277
592.339447
588.969122
586.944176
586.268736
586.944176
588.969124
592.339454
597.048286
603.085960
610.440058
619.095321
629.033707
640.234323
652.673444
666.324528
681.158196
697.142277
714.241862
732.419339
721.792596
703.201979
685.713788
669.366449
654.195639
640.234321
627.512475
616.057314
605.893048
597.041082
589.519859
583.344953
578.529105
575.082182
573.011214
572.320423
573.011215
575.082183
578.529111
583.344961
589.519855
597.041091
605.893063
616.057320
627.512494
640.234320
654.195653
669.366447
685.713800
703.202008
721.792606
712.223923
693.261317
675.423197
658.748756
643.274385
629.033708
616.057304
604.372931
594.005282
584.976193
577.304473
571.006009
566.093798
562.577904
560.465497
559.760884
560.465497
562.577905
566.093805
571.006018
577.304469
584.976201
594.005297
604.372936
616.057323
629.033707
643.274399
658.748753
675.423208
693.261346
712.223931
703.733570
684.440896
666.292281
649.327600
633.583878
619.095324
605.893048
594.005293
583.457182
574.270928
566.465672
560.057575
555.059860
551.482767
549.333591
548.616713
549.333591
551.482768
555.059867
560.057584
566.465668
574.270937
583.457197
594.005297
605.893067
619.095321
633.583892
649.327597
666.292292
684.440925
703.733578
696.339383
676.759256
658.340233
641.122784
625.144486
610.440056
597.041071
584.976192
574.270917
564.947791
557.026239
550.522663
545.450483
541.820092
539.638894
538.911335
539.638894
541.820093
545.450490
550.522672
557.026234
564.947800
574.270932
584.976197
597.041090
610.440054
625.144499
641.122780
658.340243
676.759285
696.339391
690.056789
670.232421
651.583641
634.151424
617.973814
603.085963
589.519840
577.304465
566.465653
557.026231
549.005866
542.421164
537.285715
533.610038
531.401631
530.664997
531.401632
533.610039
537.285721
542.421173
549.005861
557.026239
566.465668
577.304469
589.519859
603.085961
617.973828
634.151420
651.583652
670.232450
690.056796
684.898807
664.873920
646.036511
628.427970
612.086726
597.048286
583.344944
571.006011
560.057566
550.522666
542.421175
535.769870
530.582476
526.869620
524.638876
523.894790
524.638877
526.869622
530.582483
535.769880
542.421170
550.522674
560.057582
571.006016
583.344963
597.048283
612.086739
628.427965
646.036521
664.873949
684.898815
680.876058
660.694783
641.710261
623.964203
607.495340
592.339456
578.529095
566.093799
555.059850
545.450485
537.285725
530.582475
525.354569
521.612717
519.364551
518.614654
519.364552
521.612718
525.354576
530.582484
537.285720
545.450494
555.059866
566.093804
578.529114
592.339453
607.495354
623.964199
641.710271
660.694813
680.876065
677.996789
657.703581
638.613763
620.769278
604.209072
588.969127
575.082167
562.577901
551.482753
541.820090
533.610044
526.869615
521.612712
517.850106
515.589471
514.835415
515.589472
517.850108
521.612720
526.869624
533.610039
541.820099
551.482768
562.577905
575.082187
588.969124
604.209086
620.769274
638.613773
657.703611
677.996797
676.266880
655.906420
636.753339
618.849718
602.234631
586.944181
573.011200
560.465494
549.333577
539.638892
531.401638
524.638871
519.364547
515.589472
513.321345
512.564790
513.321345
515.589473
519.364554
524.638881
531.401633
539.638901
549.333593
560.465499
573.011220
586.944178
602.234645
618.849714
636.753350
655.906450
676.266887
675.689852
655.306961
636.132777
618.209431
601.576038
586.268741
572.320410
559.760881
548.616699
538.911333
530.665004
523.894786
518.614651
514.835416
512.564790
511.807402
512.564791
514.835418
518.614658
523.894796
530.664999
538.911343
548.616716
559.760887
572.320430
586.268739
601.576053
618.209427
636.132788
655.306991
675.689861
676.266879
655.906420
636.753339
618.849718
602.234631
586.944181
573.011200
560.465494
549.333577
539.638892
531.401638
524.638871
519.364547
515.589472
513.321345
512.564790
513.321346
515.589474
519.364555
524.638881
531.401634
539.638902
549.333594
560.465500
573.011221
586.944179
602.234646
618.849715
636.753350
655.906451
676.266888
677.996789
657.703581
638.613763
620.769278
604.209072
588.969126
575.082167
562.577901
551.482753
541.820090
533.610044
526.869615
521.612713
517.850107
515.589472
514.835416
515.589473
517.850109
521.612721
526.869626
533.610040
541.820100
551.482770
562.577907
575.082189
588.969126
604.209088
620.769276
638.613775
657.703612
677.996798
680.876057
660.694783
641.710260
623.964203
607.495340
592.339455
578.529094
566.093799
555.059850
545.450486
537.285725
530.582476
525.354570
521.612718
519.364552
518.614655
519.364553
521.612720
525.354578
530.582486
537.285722
545.450496
555.059868
566.093806
578.529116
592.339456
607.495356
623.964202
641.710274
660.694815
680.876068
684.898807
664.873919
646.036510
628.427969
612.086725
597.048286
583.344944
571.006012
560.057567
550.522666
542.421176
535.769871
530.582477
526.869622
524.638878
523.894792
524.638879
526.869624
530.582486
535.769882
542.421173
550.522677
560.057585
571.006019
583.344966
597.048287
612.086743
628.427969
646.036525
664.873953
684.898818
690.056791
670.232424
651.583644
634.151427
617.973817
603.085967
589.519844
577.304469
566.465657
557.026236
549.005871
542.421170
537.285720
533.610044
531.401638
530.665003
531.401639
533.610046
537.285729
542.421181
549.005868
557.026247
566.465676
577.304478
589.519868
603.085969
617.973836
634.151429
651.583660
670.232458
690.056804
696.339378
676.759251
658.340227
641.122779
625.144480
610.440051
597.041066
584.976187
574.270913
564.947787
557.026235
550.522659
545.450480
541.820089
539.638891
538.911332
539.638892
541.820092
545.450489
550.522671
557.026234
564.947799
574.270932
584.976197
597.041091
610.440055
625.144501
641.122782
658.340245
676.759287
696.339393
703.733573
684.440899
666.292284
649.327604
633.583882
619.095328
605.893053
594.005298
583.457187
574.270935
566.465679
560.057582
555.059868
551.482775
549.333599
548.616722
549.333600
551.482778
555.059877
560.057594
566.465678
574.270948
583.457208
594.005309
605.893078
619.095333
633.583904
649.327609
666.292304
684.440937
703.733589
712.223916
693.261309
675.423189
658.748749
643.274378
629.033701
616.057297
604.372925
594.005277
584.976187
577.304468
571.006005
566.093794
562.577900
560.465493
559.760881
560.465495
562.577903
566.093803
571.006017
577.304468
584.976201
594.005298
604.372936
616.057324
629.033708
643.274402
658.748756
675.423211
693.261349
712.223935
721.792602
703.201985
685.713795
669.366457
654.195647
640.234330
627.512485
616.057325
605.893059
597.041094
589.519872
583.344966
578.529118
575.082196
573.011229
572.320439
573.011230
575.082199
578.529128
583.344978
589.519872
597.041109
605.893081
616.057338
627.512513
640.234339
654.195672
669.366467
685.713819
703.202027
721.792624
732.419324
714.241828
697.142261
681.158194
666.324510
652.673443
640.234303
629.033701
619.095307
610.440051
603.085966
597.048279
592.339450
588.969125
586.944179
586.268740
586.944181
588.969129
592.339459
597.048292
603.085967
610.440065
619.095329
629.033715
640.234332
652.673454
666.324538
681.158207
697.142288
714.241873
732.419350
744.081418
726.357293
709.684213
694.098811
679.635101
666.324510
654.195621
643.274377
633.583861
625.144480
617.973816
612.086718
607.495334
604.209070
602.234630
601.576037
602.234631
604.209074
607.495344
612.086731
617.973818
625.144495
633.583884
643.274392
654.195651
666.324523
679.635131
694.098827
709.684244
726.357342
744.081448
756.753818
739.522341
723.312695
708.160496
694.098810
681.158193
669.366431
658.748748
649.327583
641.122778
634.151426
628.427962
623.964197
620.769277
618.849716
618.209430
618.849718
620.769280
623.964207
628.427975
634.151428
641.122793
649.327606
658.748764
669.366462
681.158208
694.098843
708.160516
723.312732
739.522396
756.753854
770.408988
753.708365
737.998095
723.312695
709.684212
697.142260
685.713769
675.423188
666.292264
658.340226
651.583642
646.036503
641.710255
638.613761
636.753337
636.132776
636.753339
638.613764
641.710264
646.036516
651.583645
658.340242
666.292287
675.423205
685.713801
697.142276
709.684246
723.312719
737.998138
753.708429
770.409034
785.017159
768.884440
753.708400
739.522377
726.357330
714.241866
703.202001
693.261350
684.440921
676.759292
670.232465
664.873956
660.694821
657.703623
655.906463
655.307004
655.906465
657.703627
660.694830
664.873968
670.232468
676.759307
684.440944
693.261366
703.202032
714.241884
726.357366
739.522404
753.708448
768.884515
785.017224
800.546125
785.017117
770.408988
756.753819
744.081419
732.419326
721.792581
712.223917
703.733556
696.339380
690.056792
684.898803
680.876055
677.996790
676.266881
675.689854
676.266882
677.996793
680.876064
684.898815
690.056795
696.339395
703.733579
712.223933
721.792611
732.419343
744.081454
756.753846
770.409037
785.017204
800.546220
