# vtk DataFile Version 2.0
Unstructured Grid Example
ASCII
DATASET UNSTRUCTURED_GRID

POINTS 961 float
0.1 0.005 0
0.0966667 0.005 0
0.0933333 0.005 0
0.09 0.005 0
0.0866667 0.005 0
0.0833333 0.005 0
0.08 0.005 0
0.0766667 0.005 0
0.0733333 0.005 0
0.07 0.005 0
0.0666667 0.005 0
0.0633333 0.005 0
0.06 0.005 0
0.0566667 0.005 0
0.0533333 0.005 0
0.05 0.005 0
0.0466667 0.005 0
0.0433333 0.005 0
0.04 0.005 0
0.0366667 0.005 0
0.0333333 0.005 0
0.03 0.005 0
0.0266667 0.005 0
0.0233333 0.005 0
0.02 0.005 0
0.0166667 0.005 0
0.0133333 0.005 0
0.01 0.005 0
0.00666667 0.005 0
0.00333333 0.005 0
0 0.005 0
0.1 0.00166667 0
0.0966667 0.00166667 0
0.0933333 0.00166667 0
0.09 0.00166667 0
0.0866667 0.00166667 0
0.0833333 0.00166667 0
0.08 0.00166667 0
0.0766667 0.00166667 0
0.0733333 0.00166667 0
0.07 0.00166667 0
0.0666667 0.00166667 0
0.0633333 0.00166667 0
0.06 0.00166667 0
0.0566667 0.00166667 0
0.0533333 0.00166667 0
0.05 0.00166667 0
0.0466667 0.00166667 0
0.0433333 0.00166667 0
0.04 0.00166667 0
0.0366667 0.00166667 0
0.0333333 0.00166667 0
0.03 0.00166667 0
0.0266667 0.00166667 0
0.0233333 0.00166667 0
0.02 0.00166667 0
0.0166667 0.00166667 0
0.0133333 0.00166667 0
0.01 0.00166667 0
0.00666667 0.00166667 0
0.00333333 0.00166667 0
0 0.00166667 0
0.1 -0.00166667 0
0.0966667 -0.00166667 0
0.0933333 -0.00166667 0
0.09 -0.00166667 0
0.0866667 -0.00166667 0
0.0833333 -0.00166667 0
0.08 -0.00166667 0
0.0766667 -0.00166667 0
0.0733333 -0.00166667 0
0.07 -0.00166667 0
0.0666667 -0.00166667 0
0.0633333 -0.00166667 0
0.06 -0.00166667 0
0.0566667 -0.00166667 0
0.0533333 -0.00166667 0
0.05 -0.00166667 0
0.0466667 -0.00166667 0
0.0433333 -0.00166667 0
0.04 -0.00166667 0
0.0366667 -0.00166667 0
0.0333333 -0.00166667 0
0.03 -0.00166667 0
0.0266667 -0.00166667 0
0.0233333 -0.00166667 0
0.02 -0.00166667 0
0.0166667 -0.00166667 0
0.0133333 -0.00166667 0
0.01 -0.00166667 0
0.00666667 -0.00166667 0
0.00333333 -0.00166667 0
0 -0.00166667 0
0.1 -0.005 0
0.0966667 -0.005 0
0.0933333 -0.005 0
0.09 -0.005 0
0.0866667 -0.005 0
0.0833333 -0.005 0
0.08 -0.005 0
0.0766667 -0.005 0
0.0733333 -0.005 0
0.07 -0.005 0
0.0666667 -0.005 0
0.0633333 -0.005 0
0.06 -0.005 0
0.0566667 -0.005 0
0.0533333 -0.005 0
0.05 -0.005 0
0.0466667 -0.005 0
0.0433333 -0.005 0
0.04 -0.005 0
0.0366667 -0.005 0
0.0333333 -0.005 0
0.03 -0.005 0
0.0266667 -0.005 0
0.0233333 -0.005 0
0.02 -0.005 0
0.0166667 -0.005 0
0.0133333 -0.005 0
0.01 -0.005 0
0.00666667 -0.005 0
0.00333333 -0.005 0
0 -0.005 0
0.1 -0.00833333 0
0.0966667 -0.00833333 0
0.0933333 -0.00833333 0
0.09 -0.00833333 0
0.0866667 -0.00833333 0
0.0833333 -0.00833333 0
0.08 -0.00833333 0
0.0766667 -0.00833333 0
0.0733333 -0.00833333 0
0.07 -0.00833333 0
0.0666667 -0.00833333 0
0.0633333 -0.00833333 0
0.06 -0.00833333 0
0.0566667 -0.00833333 0
0.0533333 -0.00833333 0
0.05 -0.00833333 0
0.0466667 -0.00833333 0
0.0433333 -0.00833333 0
0.04 -0.00833333 0
0.0366667 -0.00833333 0
0.0333333 -0.00833333 0
0.03 -0.00833333 0
0.0266667 -0.00833333 0
0.0233333 -0.00833333 0
0.02 -0.00833333 0
0.0166667 -0.00833333 0
0.0133333 -0.00833333 0
0.01 -0.00833333 0
0.00666667 -0.00833333 0
0.00333333 -0.00833333 0
0 -0.00833333 0
0.1 -0.0116667 0
0.0966667 -0.0116667 0
0.0933333 -0.0116667 0
0.09 -0.0116667 0
0.0866667 -0.0116667 0
0.0833333 -0.0116667 0
0.08 -0.0116667 0
0.0766667 -0.0116667 0
0.0733333 -0.0116667 0
0.07 -0.0116667 0
0.0666667 -0.0116667 0
0.0633333 -0.0116667 0
0.06 -0.0116667 0
0.0566667 -0.0116667 0
0.0533333 -0.0116667 0
0.05 -0.0116667 0
0.0466667 -0.0116667 0
0.0433333 -0.0116667 0
0.04 -0.0116667 0
0.0366667 -0.0116667 0
0.0333333 -0.0116667 0
0.03 -0.0116667 0
0.0266667 -0.0116667 0
0.0233333 -0.0116667 0
0.02 -0.0116667 0
0.0166667 -0.0116667 0
0.0133333 -0.0116667 0
0.01 -0.0116667 0
0.00666667 -0.0116667 0
0.00333333 -0.0116667 0
0 -0.0116667 0
0.1 -0.015 0
0.0966667 -0.015 0
0.0933333 -0.015 0
0.09 -0.015 0
0.0866667 -0.015 0
0.0833333 -0.015 0
0.08 -0.015 0
0.0766667 -0.015 0
0.0733333 -0.015 0
0.07 -0.015 0
0.0666667 -0.015 0
0.0633333 -0.015 0
0.06 -0.015 0
0.0566667 -0.015 0
0.0533333 -0.015 0
0.05 -0.015 0
0.0466667 -0.015 0
0.0433333 -0.015 0
0.04 -0.015 0
0.0366667 -0.015 0
0.0333333 -0.015 0
0.03 -0.015 0
0.0266667 -0.015 0
0.0233333 -0.015 0
0.02 -0.015 0
0.0166667 -0.015 0
0.0133333 -0.015 0
0.01 -0.015 0
0.00666667 -0.015 0
0.00333333 -0.015 0
0 -0.015 0
0.1 -0.0183333 0
0.0966667 -0.0183333 0
0.0933333 -0.0183333 0
0.09 -0.0183333 0
0.0866667 -0.0183333 0
0.0833333 -0.0183333 0
0.08 -0.0183333 0
0.0766667 -0.0183333 0
0.0733333 -0.0183333 0
0.07 -0.0183333 0
0.0666667 -0.0183333 0
0.0633333 -0.0183333 0
0.06 -0.0183333 0
0.0566667 -0.0183333 0
0.0533333 -0.0183333 0
0.05 -0.0183333 0
0.0466667 -0.0183333 0
0.0433333 -0.0183333 0
0.04 -0.0183333 0
0.0366667 -0.0183333 0
0.0333333 -0.0183333 0
0.03 -0.0183333 0
0.0266667 -0.0183333 0
0.0233333 -0.0183333 0
0.02 -0.0183333 0
0.0166667 -0.0183333 0
0.0133333 -0.0183333 0
0.01 -0.0183333 0
0.00666667 -0.0183333 0
0.00333333 -0.0183333 0
0 -0.0183333 0
0.1 -0.0216667 0
0.0966667 -0.0216667 0
0.0933333 -0.0216667 0
0.09 -0.0216667 0
0.0866667 -0.0216667 0
0.0833333 -0.0216667 0
0.08 -0.0216667 0
0.0766667 -0.0216667 0
0.0733333 -0.0216667 0
0.07 -0.0216667 0
0.0666667 -0.0216667 0
0.0633333 -0.0216667 0
0.06 -0.0216667 0
0.0566667 -0.0216667 0
0.0533333 -0.0216667 0
0.05 -0.0216667 0
0.0466667 -0.0216667 0
0.0433333 -0.0216667 0
0.04 -0.0216667 0
0.0366667 -0.0216667 0
0.0333333 -0.0216667 0
0.03 -0.0216667 0
0.0266667 -0.0216667 0
0.0233333 -0.0216667 0
0.02 -0.0216667 0
0.0166667 -0.0216667 0
0.0133333 -0.0216667 0
0.01 -0.0216667 0
0.00666667 -0.0216667 0
0.00333333 -0.0216667 0
0 -0.0216667 0
0.1 -0.025 0
0.0966667 -0.025 0
0.0933333 -0.025 0
0.09 -0.025 0
0.0866667 -0.025 0
0.0833333 -0.025 0
0.08 -0.025 0
0.0766667 -0.025 0
0.0733333 -0.025 0
0.07 -0.025 0
0.0666667 -0.025 0
0.0633333 -0.025 0
0.06 -0.025 0
0.0566667 -0.025 0
0.0533333 -0.025 0
0.05 -0.025 0
0.0466667 -0.025 0
0.0433333 -0.025 0
0.04 -0.025 0
0.0366667 -0.025 0
0.0333333 -0.025 0
0.03 -0.025 0
0.0266667 -0.025 0
0.0233333 -0.025 0
0.02 -0.025 0
0.0166667 -0.025 0
0.0133333 -0.025 0
0.01 -0.025 0
0.00666667 -0.025 0
0.00333333 -0.025 0
0 -0.025 0
0.1 -0.0283333 0
0.0966667 -0.0283333 0
0.0933333 -0.0283333 0
0.09 -0.0283333 0
0.0866667 -0.0283333 0
0.0833333 -0.0283333 0
0.08 -0.0283333 0
0.0766667 -0.0283333 0
0.0733333 -0.0283333 0
0.07 -0.0283333 0
0.0666667 -0.0283333 0
0.0633333 -0.0283333 0
0.06 -0.0283333 0
0.0566667 -0.0283333 0
0.0533333 -0.0283333 0
0.05 -0.0283333 0
0.0466667 -0.0283333 0
0.0433333 -0.0283333 0
0.04 -0.0283333 0
0.0366667 -0.0283333 0
0.0333333 -0.0283333 0
0.03 -0.0283333 0
0.0266667 -0.0283333 0
0.0233333 -0.0283333 0
0.02 -0.0283333 0
0.0166667 -0.0283333 0
0.0133333 -0.0283333 0
0.01 -0.0283333 0
0.00666667 -0.0283333 0
0.00333333 -0.0283333 0
0 -0.0283333 0
0.1 -0.0316667 0
0.0966667 -0.0316667 0
0.0933333 -0.0316667 0
0.09 -0.0316667 0
0.0866667 -0.0316667 0
0.0833333 -0.0316667 0
0.08 -0.0316667 0
0.0766667 -0.0316667 0
0.0733333 -0.0316667 0
0.07 -0.0316667 0
0.0666667 -0.0316667 0
0.0633333 -0.0316667 0
0.06 -0.0316667 0
0.0566667 -0.0316667 0
0.0533333 -0.0316667 0
0.05 -0.0316667 0
0.0466667 -0.0316667 0
0.0433333 -0.0316667 0
0.04 -0.0316667 0
0.0366667 -0.0316667 0
0.0333333 -0.0316667 0
0.03 -0.0316667 0
0.0266667 -0.0316667 0
0.0233333 -0.0316667 0
0.02 -0.0316667 0
0.0166667 -0.0316667 0
0.0133333 -0.0316667 0
0.01 -0.0316667 0
0.00666667 -0.0316667 0
0.00333333 -0.0316667 0
0 -0.0316667 0
0.1 -0.035 0
0.0966667 -0.035 0
0.0933333 -0.035 0
0.09 -0.035 0
0.0866667 -0.035 0
0.0833333 -0.035 0
0.08 -0.035 0
0.0766667 -0.035 0
0.0733333 -0.035 0
0.07 -0.035 0
0.0666667 -0.035 0
0.0633333 -0.035 0
0.06 -0.035 0
0.0566667 -0.035 0
0.0533333 -0.035 0
0.05 -0.035 0
0.0466667 -0.035 0
0.0433333 -0.035 0
0.04 -0.035 0
0.0366667 -0.035 0
0.0333333 -0.035 0
0.03 -0.035 0
0.0266667 -0.035 0
0.0233333 -0.035 0
0.02 -0.035 0
0.0166667 -0.035 0
0.0133333 -0.035 0
0.01 -0.035 0
0.00666667 -0.035 0
0.00333333 -0.035 0
0 -0.035 0
0.1 -0.0383333 0
0.0966667 -0.0383333 0
0.0933333 -0.0383333 0
0.09 -0.0383333 0
0.0866667 -0.0383333 0
0.0833333 -0.0383333 0
0.08 -0.0383333 0
0.0766667 -0.0383333 0
0.0733333 -0.0383333 0
0.07 -0.0383333 0
0.0666667 -0.0383333 0
0.0633333 -0.0383333 0
0.06 -0.0383333 0
0.0566667 -0.0383333 0
0.0533333 -0.0383333 0
0.05 -0.0383333 0
0.0466667 -0.0383333 0
0.0433333 -0.0383333 0
0.04 -0.0383333 0
0.0366667 -0.0383333 0
0.0333333 -0.0383333 0
0.03 -0.0383333 0
0.0266667 -0.0383333 0
0.0233333 -0.0383333 0
0.02 -0.0383333 0
0.0166667 -0.0383333 0
0.0133333 -0.0383333 0
0.01 -0.0383333 0
0.00666667 -0.0383333 0
0.00333333 -0.0383333 0
0 -0.0383333 0
0.1 -0.0416667 0
0.0966667 -0.0416667 0
0.0933333 -0.0416667 0
0.09 -0.0416667 0
0.0866667 -0.0416667 0
0.0833333 -0.0416667 0
0.08 -0.0416667 0
0.0766667 -0.0416667 0
0.0733333 -0.0416667 0
0.07 -0.0416667 0
0.0666667 -0.0416667 0
0.0633333 -0.0416667 0
0.06 -0.0416667 0
0.0566667 -0.0416667 0
0.0533333 -0.0416667 0
0.05 -0.0416667 0
0.0466667 -0.0416667 0
0.0433333 -0.0416667 0
0.04 -0.0416667 0
0.0366667 -0.0416667 0
0.0333333 -0.0416667 0
0.03 -0.0416667 0
0.0266667 -0.0416667 0
0.0233333 -0.0416667 0
0.02 -0.0416667 0
0.0166667 -0.0416667 0
0.0133333 -0.0416667 0
0.01 -0.0416667 0
0.00666667 -0.0416667 0
0.00333333 -0.0416667 0
0 -0.0416667 0
0.1 -0.045 0
0.0966667 -0.045 0
0.0933333 -0.045 0
0.09 -0.045 0
0.0866667 -0.045 0
0.0833333 -0.045 0
0.08 -0.045 0
0.0766667 -0.045 0
0.0733333 -0.045 0
0.07 -0.045 0
0.0666667 -0.045 0
0.0633333 -0.045 0
0.06 -0.045 0
0.0566667 -0.045 0
0.0533333 -0.045 0
0.05 -0.045 0
0.0466667 -0.045 0
0.0433333 -0.045 0
0.04 -0.045 0
0.0366667 -0.045 0
0.0333333 -0.045 0
0.03 -0.045 0
0.0266667 -0.045 0
0.0233333 -0.045 0
0.02 -0.045 0
0.0166667 -0.045 0
0.0133333 -0.045 0
0.01 -0.045 0
0.00666667 -0.045 0
0.00333333 -0.045 0
0 -0.045 0
0.1 -0.0483333 0
0.0966667 -0.0483333 0
0.0933333 -0.0483333 0
0.09 -0.0483333 0
0.0866667 -0.0483333 0
[...]
POINT_DATA 961
SCALARS Temp float 1
LOOKUP_TABLE default
1099.339577
1095.425820
1091.743077
1088.299471
1085.102605
1082.159554
1079.476806
1077.060301
1074.915365
1073.046746
1071.458566
1070.154332
1069.136929
1068.408604
1067.970964
1067.824976
1067.970964
1068.408604
1069.136931
1070.154334
1071.458566
1073.046748
1074.915369
1077.060303
1079.476811
1082.159555
1085.102609
1088.299473
1091.743082
1095.425832
1099.339586
1095.425826
1091.359898
1087.533964
1083.956469
1080.635306
1077.577827
1074.790772
1072.280311
1070.051978
1068.110706
1066.460776
1065.105833
1064.048872
1063.292229
1062.837573
1062.685910
1062.837573
1063.292230
1064.048874
1065.105835
1066.460776
1068.110708
1070.051982
1072.280313
1074.790777
1077.577827
1080.635310
1083.956470
1087.533970
1091.359908
1095.425832
1091.743078
1087.533961
1083.573290
1079.869807
1076.431683
1073.266530
1070.381325
1067.782454
1065.475647
1063.466009
1061.757975
1060.355314
1059.261132
1058.477842
1058.007175
1057.850170
1058.007175
1058.477843
1059.261133
1060.355317
1061.757974
1063.466011
1065.475651
1067.782456
1070.381330
1073.266531
1076.431688
1079.869808
1083.573295
1087.533970
1091.743082
1088.299469
1083.956461
1079.869804
1076.048513
1072.501024
1069.235189
1066.258206
1063.576666
1061.196480
1059.122917
1057.360551
1055.913272
1054.784284
1053.976078
1053.490439
1053.328440
1053.490439
1053.976079
1054.784286
1055.913275
1057.360550
1059.122919
1061.196484
1063.576668
1066.258212
1069.235190
1072.501029
1076.048514
1079.869808
1083.956470
1088.299473
1085.102606
1080.635302
1076.431684
1072.501029
1068.852010
1065.492707
1062.430523
1059.672237
1057.223931
1055.091022
1053.278217
1051.789517
1050.628217
1049.796881
1049.297343
1049.130707
1049.297343
1049.796881
1050.628219
1051.789520
1053.278216
1055.091024
1057.223935
1059.672239
1062.430528
1065.492707
1068.852015
1072.501029
1076.431688
1080.635310
1085.102609
1082.159553
1077.577820
1073.266528
1069.235190
1065.492704
1062.047353
1058.906732
1056.077794
1053.566775
1051.379233
1049.519993
1047.993161
1046.802115
1045.949484
1045.437150
1045.266247
1045.437151
1045.949485
1046.802117
1047.993164
1049.519992
1051.379235
1053.566779
1056.077796
1058.906738
1062.047353
1065.492708
1069.235191
1073.266532
1077.577828
1082.159556
1079.476809
1074.790769
1070.381327
1066.258212
1062.430524
1058.906737
1055.694617
1052.801276
1050.233091
1047.995747
1046.094180
1044.532589
1043.314427
1042.442385
1041.918388
1041.743593
1041.918388
1042.442386
1043.314429
1044.532591
1046.094179
1047.995749
1050.233095
1052.801277
1055.694622
1058.906737
1062.430528
1066.258212
1070.381330
1074.790777
1079.476812
1077.060301
1072.280306
1067.782453
1063.576669
1059.672236
1056.077796
1052.801273
1049.849920
1047.230242
1044.948039
1043.008346
1041.415444
1040.172858
1039.283332
1038.748828
1038.570529
1038.748828
1039.283332
1040.172860
1041.415447
1043.008345
1044.948042
1047.230246
1049.849921
1052.801278
1056.077796
1059.672240
1063.576669
1067.782457
1072.280314
1077.060304
1074.915367
1070.051975
1065.475648
1061.196486
1057.223932
1053.566779
1050.233091
1047.230245
1044.564862
1042.242841
1040.269306
1038.648613
1037.384347
1036.479301
1035.935472
1035.754062
1035.935472
1036.479302
1037.384349
1038.648615
1040.269305
1042.242843
1044.564866
1047.230246
1050.233096
1053.566779
1057.223936
1061.196486
1065.475652
1070.051983
1074.915370
1073.046746
1068.110700
1063.466008
1059.122920
1055.091020
1051.379234
1047.995744
1044.948039
1042.242838
1039.886129
1037.883112
1036.238207
1034.955055
1034.036489
1033.484535
1033.300415
1033.484536
1034.036489
1034.955057
1036.238209
1037.883111
1039.886132
1042.242842
1044.948041
1047.995749
1051.379234
1055.091024
1059.122919
1063.466011
1068.110708
1073.046748
1071.458565
1066.460769
1061.757972
1057.360552
1053.278214
1049.519993
1046.094175
1043.008344
1040.269301
1037.883109
1035.855034
1034.189552
1032.890348
1031.960290
1031.401432
1031.215009
1031.401432
1031.960291
1032.890350
1034.189554
1035.855033
1037.883112
1040.269305
1043.008345
1046.094181
1049.519993
1053.278218
1057.360551
1061.757975
1066.460777
1071.458567
1070.154333
1065.105827
1060.355314
1055.913276
1051.789517
1047.993163
1044.532586
1041.415445
1038.648610
1036.238208
1034.189555
1032.507174
1031.194787
1030.255293
1029.690764
1029.502450
1029.690765
1030.255293
1031.194789
1032.507176
1034.189554
1036.238210
1038.648615
1041.415446
1044.532592
1047.993163
1051.789520
1055.913275
1060.355317
1065.105835
1070.154335
1069.136929
1064.048867
1059.261131
1054.784287
1050.628216
1046.802117
1043.314424
1040.172858
1037.384345
1034.955055
1032.890350
1031.194787
1029.872117
1028.925262
1028.356310
1028.166519
1028.356310
1028.925262
1029.872119
1031.194790
1032.890349
1034.955058
1037.384349
1040.172860
1043.314430
1046.802117
1050.628220
1054.784287
1059.261134
1064.048875
1069.136932
1068.408603
1063.292223
1058.477840
1053.976081
1049.796879
1045.949485
1042.442382
1039.283331
1036.479298
1034.036488
1031.960292
1030.255292
1028.925261
1027.973135
1027.401017
1027.210170
1027.401017
1027.973136
1028.925263
1030.255294
1031.960291
1034.036491
1036.479302
1039.283333
1042.442387
1045.949485
1049.796883
1053.976080
1058.477844
1063.292231
1068.408606
1067.970963
1062.837567
1058.007173
1053.490442
1049.297341
1045.437151
1041.918384
1038.748827
1035.935468
1033.484535
1031.401433
1029.690763
1028.356309
1027.401017
1026.826995
1026.635514
1026.826996
1027.401017
1028.356311
1029.690766
1031.401433
1033.484537
1035.935473
1038.748829
1041.918390
1045.437151
1049.297345
1053.490441
1058.007176
1062.837575
1067.970966
1067.824976
1062.685903
1057.850168
1053.328443
1049.130705
1045.266248
1041.743590
1038.570528
1035.754059
1033.300415
1031.215010
1029.502448
1028.166518
1027.210170
1026.635514
1026.443821
1026.635515
1027.210171
1028.166520
1029.502451
1031.215009
1033.300418
1035.754063
1038.570530
1041.743595
1045.266248
1049.130710
1053.328442
1057.850172
1062.685911
1067.824978
1067.970963
1062.837567
1058.007173
1053.490442
1049.297341
1045.437151
1041.918384
1038.748827
1035.935468
1033.484535
1031.401433
1029.690763
1028.356309
1027.401017
1026.826996
1026.635514
1026.826996
1027.401017
1028.356311
1029.690766
1031.401433
1033.484538
1035.935473
1038.748829
1041.918390
1045.437152
1049.297345
1053.490441
1058.007177
1062.837575
1067.970966
1068.408603
1063.292223
1058.477840
1053.976081
1049.796879
1045.949485
1042.442381
1039.283331
1036.479298
1034.036488
1031.960292
1030.255292
1028.925261
1027.973135
1027.401017
1027.210170
1027.401017
1027.973136
1028.925263
1030.255295
1031.960291
1034.036491
1036.479302
1039.283333
1042.442387
1045.949485
1049.796883
1053.976081
1058.477844
1063.292231
1068.408606
1069.136929
1064.048867
1059.261131
1054.784287
1050.628216
1046.802117
1043.314424
1040.172858
1037.384345
1034.955055
1032.890350
1031.194787
1029.872117
1028.925262
1028.356310
1028.166520
1028.356310
1028.925263
1029.872120
1031.194790
1032.890350
1034.955058
1037.384350
1040.172861
1043.314430
1046.802117
1050.628221
1054.784287
1059.261135
1064.048875
1069.136933
1070.154332
1065.105827
1060.355314
1055.913276
1051.789516
1047.993163
1044.532586
1041.415445
1038.648610
1036.238208
1034.189555
1032.507174
1031.194788
1030.255293
1029.690765
1029.502450
1029.690765
1030.255294
1031.194790
1032.507177
1034.189555
1036.238211
1038.648615
1041.415447
1044.532592
1047.993164
1051.789521
1055.913276
1060.355318
1065.105836
1070.154336
1071.458565
1066.460770
1061.757973
1057.360553
1053.278214
1049.519994
1046.094176
1043.008345
1040.269302
1037.883111
1035.855036
1034.189553
1032.890349
1031.960292
1031.401434
1031.215010
1031.401434
1031.960292
1032.890351
1034.189556
1035.855035
1037.883114
1040.269307
1043.008347
1046.094183
1049.519995
1053.278220
1057.360554
1061.757977
1066.460779
1071.458569
1073.046745
1068.110699
1063.466007
1059.122919
1055.091019
1051.379233
1047.995743
1044.948038
1042.242837
1039.886128
1037.883111
1036.238206
1034.955054
1034.036488
1033.484535
1033.300415
1033.484535
1034.036489
1034.955056
1036.238209
1037.883111
1039.886132
1042.242842
1044.948041
1047.995749
1051.379234
1055.091025
1059.122920
1063.466012
1068.110708
1073.046749
1074.915368
1070.051976
1065.475649
1061.196487
1057.223933
1053.566780
1050.233092
1047.230246
1044.564863
1042.242843
1040.269308
1038.648614
1037.384349
1036.479303
1035.935474
1035.754065
1035.935475
1036.479304
1037.384352
1038.648618
1040.269308
1042.242846
1044.564869
1047.230249
1050.233099
1053.566782
1057.223939
1061.196489
1065.475655
1070.051986
1074.915373
1077.060300
1072.280304
1067.782451
1063.576668
1059.672234
1056.077794
1052.801271
1049.849918
1047.230241
1044.948038
1043.008345
1041.415443
1040.172857
1039.283331
1038.748827
1038.570528
1038.748828
1039.283332
1040.172860
1041.415446
1043.008345
1044.948042
1047.230246
1049.849921
1052.801279
1056.077797
1059.672241
1063.576670
1067.782457
1072.280315
1077.060305
1079.476810
1074.790771
1070.381328
1066.258214
1062.430526
1058.906739
1055.694619
1052.801278
1050.233094
1047.995750
1046.094184
1044.532592
1043.314431
1042.442389
1041.918392
1041.743597
1041.918392
1042.442390
1043.314433
1044.532595
1046.094184
1047.995754
1050.233099
1052.801282
1055.694627
1058.906742
1062.430533
1066.258217
1070.381335
1074.790782
1079.476816
1082.159552
1077.577819
1073.266527
1069.235189
1065.492703
1062.047352
1058.906732
1056.077794
1053.566775
1051.379233
1049.519994
1047.993162
1046.802116
1045.949485
1045.437151
1045.266248
1045.437152
1045.949486
1046.802118
1047.993165
1049.519994
1051.379237
1053.566781
1056.077798
1058.906740
1062.047356
1065.492711
1069.235193
1073.266535
1077.577831
1082.159559
1085.102602
1080.635298
1076.431680
1072.501025
1068.852007
1065.492703
1062.430520
1059.672234
1057.223928
1055.091019
1053.278214
1051.789515
1050.628215
1049.796879
1049.297341
1049.130705
1049.297341
1049.796880
1050.628217
1051.789518
1053.278215
1055.091023
1057.223934
1059.672239
1062.430528
1065.492707
1068.852015
1072.501029
1076.431689
1080.635311
1085.102610
1088.299468
1083.956461
1079.869803
1076.048513
1072.501025
1069.235189
1066.258207
1063.576667
1061.196482
1059.122918
1057.360553
1055.913274
1054.784286
1053.976081
1053.490441
1053.328443
1053.490442
1053.976082
1054.784289
1055.913278
1057.360553
1059.122923
1061.196488
1063.576672
1066.258215
1069.235194
1072.501033
1076.048519
1079.869813
1083.956475
1088.299478
1091.743073
1087.533956
1083.573286
1079.869803
1076.431680
1073.266527
1070.381322
1067.782451
1065.475644
1063.466007
1061.757973
1060.355312
1059.261130
1058.477840
1058.007173
1057.850168
1058.007173
1058.477841
1059.261132
1060.355316
1061.757973
1063.466011
1065.475650
1067.782456
1070.381330
1073.266532
1076.431689
1079.869810
1083.573297
1087.533973
1091.743085
1095.425825
1091.359897
1087.533965
1083.956470
1080.635307
1077.577829
1074.790775
1072.280314
1070.051982
1068.110709
1066.460780
1065.105837
1064.048876
1063.292234
1062.837578
1062.685914
1062.837578
1063.292235
1064.048879
1065.105840
1066.460781
1068.110713
1070.051988
1072.280319
1074.790783
1077.577834
1080.635317
1083.956477
1087.533977
1091.359916
1095.425842
1099.339570
1095.425815
1091.743073
1088.299468
1085.102603
1082.159552
1079.476805
1077.060300
1074.915364
1073.046745
1071.458566
1070.154332
1069.136929
1068.408604
1067.970964
1067.824976
1067.970964
1068.408605
1069.136931
1070.154335
1071.458567
1073.046749
1074.915370
1077.060304
1079.476813
1082.159557
1085.102612
1088.299476
1091.743086
1095.425837
1099.339595
