# vtk DataFile Version 2.0
Unstructured Grid Example
ASCII
DATASET UNSTRUCTURED_GRID

POINTS 961 float
0.1 0.005 0
0.0966667 0.005 0
0.0933333 0.005 0
0.09 0.005 0
0.0866667 0.005 0
0.0833333 0.005 0
0.08 0.005 0
0.0766667 0.005 0
0.0733333 0.005 0
0.07 0.005 0
0.0666667 0.005 0
0.0633333 0.005 0
0.06 0.005 0
0.0566667 0.005 0
0.0533333 0.005 0
0.05 0.005 0
0.0466667 0.005 0
0.0433333 0.005 0
0.04 0.005 0
0.0366667 0.005 0
0.0333333 0.005 0
0.03 0.005 0
0.0266667 0.005 0
0.0233333 0.005 0
0.02 0.005 0
0.0166667 0.005 0
0.0133333 0.005 0
0.01 0.005 0
0.00666667 0.005 0
0.00333333 0.005 0
0 0.005 0
0.1 0.00166667 0
0.0966667 0.00166667 0
0.0933333 0.00166667 0
0.09 0.00166667 0
0.0866667 0.00166667 0
0.0833333 0.00166667 0
0.08 0.00166667 0
0.0766667 0.00166667 0
0.0733333 0.00166667 0
0.07 0.00166667 0
0.0666667 0.00166667 0
0.0633333 0.00166667 0
0.06 0.00166667 0
0.0566667 0.00166667 0
0.0533333 0.00166667 0
0.05 0.00166667 0
0.0466667 0.00166667 0
0.0433333 0.00166667 0
0.04 0.00166667 0
0.0366667 0.00166667 0
0.0333333 0.00166667 0
0.03 0.00166667 0
0.0266667 0.00166667 0
0.0233333 0.00166667 0
0.02 0.00166667 0
0.0166667 0.00166667 0
0.0133333 0.00166667 0
0.01 0.00166667 0
0.00666667 0.00166667 0
0.00333333 0.00166667 0
0 0.00166667 0
0.1 -0.00166667 0
0.0966667 -0.00166667 0
0.0933333 -0.00166667 0
0.09 -0.00166667 0
0.0866667 -0.00166667 0
0.0833333 -0.00166667 0
0.08 -0.00166667 0
0.0766667 -0.00166667 0
0.0733333 -0.00166667 0
0.07 -0.00166667 0
0.0666667 -0.00166667 0
0.0633333 -0.00166667 0
0.06 -0.00166667 0
0.0566667 -0.00166667 0
0.0533333 -0.00166667 0
0.05 -0.00166667 0
0.0466667 -0.00166667 0
0.0433333 -0.00166667 0
0.04 -0.00166667 0
0.0366667 -0.00166667 0
0.0333333 -0.00166667 0
0.03 -0.00166667 0
0.0266667 -0.00166667 0
0.0233333 -0.00166667 0
0.02 -0.00166667 0
0.0166667 -0.00166667 0
0.0133333 -0.00166667 0
0.01 -0.00166667 0
0.00666667 -0.00166667 0
0.00333333 -0.00166667 0
0 -0.00166667 0
0.1 -0.005 0
0.0966667 -0.005 0
0.0933333 -0.005 0
0.09 -0.005 0
0.0866667 -0.005 0
0.0833333 -0.005 0
0.08 -0.005 0
0.0766667 -0.005 0
0.0733333 -0.005 0
0.07 -0.005 0
0.0666667 -0.005 0
0.0633333 -0.005 0
0.06 -0.005 0
0.0566667 -0.005 0
0.0533333 -0.005 0
0.05 -0.005 0
0.0466667 -0.005 0
0.0433333 -0.005 0
0.04 -0.005 0
0.0366667 -0.005 0
0.0333333 -0.005 0
0.03 -0.005 0
0.0266667 -0.005 0
0.0233333 -0.005 0
0.02 -0.005 0
0.0166667 -0.005 0
0.0133333 -0.005 0
0.01 -0.005 0
0.00666667 -0.005 0
0.00333333 -0.005 0
0 -0.005 0
0.1 -0.00833333 0
0.0966667 -0.00833333 0
0.0933333 -0.00833333 0
0.09 -0.00833333 0
0.0866667 -0.00833333 0
0.0833333 -0.00833333 0
0.08 -0.00833333 0
0.0766667 -0.00833333 0
0.0733333 -0.00833333 0
0.07 -0.00833333 0
0.0666667 -0.00833333 0
0.0633333 -0.00833333 0
0.06 -0.00833333 0
0.0566667 -0.00833333 0
0.0533333 -0.00833333 0
0.05 -0.00833333 0
0.0466667 -0.00833333 0
0.0433333 -0.00833333 0
0.04 -0.00833333 0
0.0366667 -0.00833333 0
0.0333333 -0.00833333 0
0.03 -0.00833333 0
0.0266667 -0.00833333 0
0.0233333 -0.00833333 0
0.02 -0.00833333 0
0.0166667 -0.00833333 0
0.0133333 -0.00833333 0
0.01 -0.00833333 0
0.00666667 -0.00833333 0
0.00333333 -0.00833333 0
0 -0.00833333 0
0.1 -0.0116667 0
0.0966667 -0.0116667 0
0.0933333 -0.0116667 0
0.09 -0.0116667 0
0.0866667 -0.0116667 0
0.0833333 -0.0116667 0
0.08 -0.0116667 0
0.0766667 -0.0116667 0
0.0733333 -0.0116667 0
0.07 -0.0116667 0
0.0666667 -0.0116667 0
0.0633333 -0.0116667 0
0.06 -0.0116667 0
0.0566667 -0.0116667 0
0.0533333 -0.0116667 0
0.05 -0.0116667 0
0.0466667 -0.0116667 0
0.0433333 -0.0116667 0
0.04 -0.0116667 0
0.0366667 -0.0116667 0
0.0333333 -0.0116667 0
0.03 -0.0116667 0
0.0266667 -0.0116667 0
0.0233333 -0.0116667 0
0.02 -0.0116667 0
0.0166667 -0.0116667 0
0.0133333 -0.0116667 0
0.01 -0.0116667 0
0.00666667 -0.0116667 0
0.00333333 -0.0116667 0
0 -0.0116667 0
0.1 -0.015 0
0.0966667 -0.015 0
0.0933333 -0.015 0
0.09 -0.015 0
0.0866667 -0.015 0
0.0833333 -0.015 0
0.08 -0.015 0
0.0766667 -0.015 0
0.0733333 -0.015 0
0.07 -0.015 0
0.0666667 -0.015 0
0.0633333 -0.015 0
0.06 -0.015 0
0.0566667 -0.015 0
0.0533333 -0.015 0
0.05 -0.015 0
0.0466667 -0.015 0
0.0433333 -0.015 0
0.04 -0.015 0
0.0366667 -0.015 0
0.0333333 -0.015 0
0.03 -0.015 0
0.0266667 -0.015 0
0.0233333 -0.015 0
0.02 -0.015 0
0.0166667 -0.015 0
0.0133333 -0.015 0
0.01 -0.015 0
0.00666667 -0.015 0
0.00333333 -0.015 0
0 -0.015 0
0.1 -0.0183333 0
0.0966667 -0.0183333 0
0.0933333 -0.0183333 0
0.09 -0.0183333 0
0.0866667 -0.0183333 0
0.0833333 -0.0183333 0
0.08 -0.0183333 0
0.0766667 -0.0183333 0
0.0733333 -0.0183333 0
0.07 -0.0183333 0
0.0666667 -0.0183333 0
0.0633333 -0.0183333 0
0.06 -0.0183333 0
0.0566667 -0.0183333 0
0.0533333 -0.0183333 0
0.05 -0.0183333 0
0.0466667 -0.0183333 0
0.0433333 -0.0183333 0
0.04 -0.0183333 0
0.0366667 -0.0183333 0
0.0333333 -0.0183333 0
0.03 -0.0183333 0
0.0266667 -0.0183333 0
0.0233333 -0.0183333 0
0.02 -0.0183333 0
0.0166667 -0.0183333 0
0.0133333 -0.0183333 0
0.01 -0.0183333 0
0.00666667 -0.0183333 0
0.00333333 -0.0183333 0
0 -0.0183333 0
0.1 -0.0216667 0
0.0966667 -0.0216667 0
0.0933333 -0.0216667 0
0.09 -0.0216667 0
0.0866667 -0.0216667 0
0.0833333 -0.0216667 0
0.08 -0.0216667 0
0.0766667 -0.0216667 0
0.0733333 -0.0216667 0
0.07 -0.0216667 0
0.0666667 -0.0216667 0
0.0633333 -0.0216667 0
0.06 -0.0216667 0
0.0566667 -0.0216667 0
0.0533333 -0.0216667 0
0.05 -0.0216667 0
0.0466667 -0.0216667 0
0.0433333 -0.0216667 0
0.04 -0.0216667 0
0.0366667 -0.0216667 0
0.0333333 -0.0216667 0
0.03 -0.0216667 0
0.0266667 -0.0216667 0
0.0233333 -0.0216667 0
0.02 -0.0216667 0
0.0166667 -0.0216667 0
0.0133333 -0.0216667 0
0.01 -0.0216667 0
0.00666667 -0.0216667 0
0.00333333 -0.0216667 0
0 -0.0216667 0
0.1 -0.025 0
0.0966667 -0.025 0
0.0933333 -0.025 0
0.09 -0.025 0
0.0866667 -0.025 0
0.0833333 -0.025 0
0.08 -0.025 0
0.0766667 -0.025 0
0.0733333 -0.025 0
0.07 -0.025 0
0.0666667 -0.025 0
0.0633333 -0.025 0
0.06 -0.025 0
0.0566667 -0.025 0
0.0533333 -0.025 0
0.05 -0.025 0
0.0466667 -0.025 0
0.0433333 -0.025 0
0.04 -0.025 0
0.0366667 -0.025 0
0.0333333 -0.025 0
0.03 -0.025 0
0.0266667 -0.025 0
0.0233333 -0.025 0
0.02 -0.025 0
0.0166667 -0.025 0
0.0133333 -0.025 0
0.01 -0.025 0
0.00666667 -0.025 0
0.00333333 -0.025 0
0 -0.025 0
0.1 -0.0283333 0
0.0966667 -0.0283333 0
0.0933333 -0.0283333 0
0.09 -0.0283333 0
0.0866667 -0.0283333 0
0.0833333 -0.0283333 0
0.08 -0.0283333 0
0.0766667 -0.0283333 0
0.0733333 -0.0283333 0
0.07 -0.0283333 0
0.0666667 -0.0283333 0
0.0633333 -0.0283333 0
0.06 -0.0283333 0
0.0566667 -0.0283333 0
0.0533333 -0.0283333 0
0.05 -0.0283333 0
0.0466667 -0.0283333 0
0.0433333 -0.0283333 0
0.04 -0.0283333 0
0.0366667 -0.0283333 0
0.0333333 -0.0283333 0
0.03 -0.0283333 0
0.0266667 -0.0283333 0
0.0233333 -0.0283333 0
0.02 -0.0283333 0
0.0166667 -0.0283333 0
0.0133333 -0.0283333 0
0.01 -0.0283333 0
0.00666667 -0.0283333 0
0.00333333 -0.0283333 0
0 -0.0283333 0
0.1 -0.0316667 0
0.0966667 -0.0316667 0
0.0933333 -0.0316667 0
0.09 -0.0316667 0
0.0866667 -0.0316667 0
0.0833333 -0.0316667 0
0.08 -0.0316667 0
0.0766667 -0.0316667 0
0.0733333 -0.0316667 0
0.07 -0.0316667 0
0.0666667 -0.0316667 0
0.0633333 -0.0316667 0
0.06 -0.0316667 0
0.0566667 -0.0316667 0
0.0533333 -0.0316667 0
0.05 -0.0316667 0
0.0466667 -0.0316667 0
0.0433333 -0.0316667 0
0.04 -0.0316667 0
0.0366667 -0.0316667 0
0.0333333 -0.0316667 0
0.03 -0.0316667 0
0.0266667 -0.0316667 0
0.0233333 -0.0316667 0
0.02 -0.0316667 0
0.0166667 -0.0316667 0
0.0133333 -0.0316667 0
0.01 -0.0316667 0
0.00666667 -0.0316667 0
0.00333333 -0.0316667 0
0 -0.0316667 0
0.1 -0.035 0
0.0966667 -0.035 0
0.0933333 -0.035 0
0.09 -0.035 0
0.0866667 -0.035 0
0.0833333 -0.035 0
0.08 -0.035 0
0.0766667 -0.035 0
0.0733333 -0.035 0
0.07 -0.035 0
0.0666667 -0.035 0
0.0633333 -0.035 0
0.06 -0.035 0
0.0566667 -0.035 0
0.0533333 -0.035 0
0.05 -0.035 0
0.0466667 -0.035 0
0.0433333 -0.035 0
0.04 -0.035 0
0.0366667 -0.035 0
0.0333333 -0.035 0
0.03 -0.035 0
0.0266667 -0.035 0
0.0233333 -0.035 0
0.02 -0.035 0
0.0166667 -0.035 0
0.0133333 -0.035 0
0.01 -0.035 0
0.00666667 -0.035 0
0.00333333 -0.035 0
0 -0.035 0
0.1 -0.0383333 0
0.0966667 -0.0383333 0
0.0933333 -0.0383333 0
0.09 -0.0383333 0
0.0866667 -0.0383333 0
0.0833333 -0.0383333 0
0.08 -0.0383333 0
0.0766667 -0.0383333 0
0.0733333 -0.0383333 0
0.07 -0.0383333 0
0.0666667 -0.0383333 0
0.0633333 -0.0383333 0
0.06 -0.0383333 0
0.0566667 -0.0383333 0
0.0533333 -0.0383333 0
0.05 -0.0383333 0
0.0466667 -0.0383333 0
0.0433333 -0.0383333 0
0.04 -0.0383333 0
0.0366667 -0.0383333 0
0.0333333 -0.0383333 0
0.03 -0.0383333 0
0.0266667 -0.0383333 0
0.0233333 -0.0383333 0
0.02 -0.0383333 0
0.0166667 -0.0383333 0
0.0133333 -0.0383333 0
0.01 -0.0383333 0
0.00666667 -0.0383333 0
0.00333333 -0.0383333 0
0 -0.0383333 0
0.1 -0.0416667 0
0.0966667 -0.0416667 0
0.0933333 -0.0416667 0
0.09 -0.0416667 0
0.0866667 -0.0416667 0
0.0833333 -0.0416667 0
0.08 -0.0416667 0
0.0766667 -0.0416667 0
0.0733333 -0.0416667 0
0.07 -0.0416667 0
0.0666667 -0.0416667 0
0.0633333 -0.0416667 0
0.06 -0.0416667 0
0.0566667 -0.0416667 0
0.0533333 -0.0416667 0
0.05 -0.0416667 0
0.0466667 -0.0416667 0
0.0433333 -0.0416667 0
0.04 -0.0416667 0
0.0366667 -0.0416667 0
0.0333333 -0.0416667 0
0.03 -0.0416667 0
0.0266667 -0.0416667 0
0.0233333 -0.0416667 0
0.02 -0.0416667 0
0.0166667 -0.0416667 0
0.0133333 -0.0416667 0
0.01 -0.0416667 0
0.00666667 -0.0416667 0
0.00333333 -0.0416667 0
0 -0.0416667 0
0.1 -0.045 0
0.0966667 -0.045 0
0.0933333 -0.045 0
0.09 -0.045 0
0.0866667 -0.045 0
0.0833333 -0.045 0
0.08 -0.045 0
0.0766667 -0.045 0
0.0733333 -0.045 0
0.07 -0.045 0
0.0666667 -0.045 0
0.0633333 -0.045 0
0.06 -0.045 0
0.0566667 -0.045 0
0.0533333 -0.045 0
0.05 -0.045 0
0.0466667 -0.045 0
0.0433333 -0.045 0
0.04 -0.045 0
0.0366667 -0.045 0
0.0333333 -0.045 0
0.03 -0.045 0
0.0266667 -0.045 0
0.0233333 -0.045 0
0.02 -0.045 0
0.0166667 -0.045 0
0.0133333 -0.045 0
0.01 -0.045 0
0.00666667 -0.045 0
0.00333333 -0.045 0
0 -0.045 0
0.1 -0.0483333 0
0.0966667 -0.0483333 0
0.0933333 -0.0483333 0
0.09 -0.0483333 0
0.0866667 -0.0483333 0
[...]
POINT_DATA 961
SCALARS Temp float 1
LOOKUP_TABLE default
1066.677209
1061.493513
1056.615790
1052.054801
1047.820613
1043.922599
1040.369352
1037.168737
1034.327810
1031.852860
1029.749347
1028.021914
1026.674384
1025.709731
1025.130085
1024.936728
1025.130085
1025.709732
1026.674386
1028.021917
1029.749347
1031.852863
1034.327815
1037.168739
1040.369358
1043.922600
1047.820619
1052.054803
1056.615797
1061.493528
1066.677221
1061.493521
1056.108277
1051.040902
1046.302578
1041.903761
1037.854189
1034.162789
1030.837732
1027.886348
1025.315170
1023.129871
1021.335274
1019.935350
1018.933191
1018.331008
1018.130133
1018.331009
1018.933192
1019.935353
1021.335277
1023.129870
1025.315173
1027.886353
1030.837735
1034.162796
1037.854190
1041.903767
1046.302580
1051.040909
1056.108290
1061.493529
1056.615791
1051.040897
1045.795065
1040.889873
1036.336145
1032.143960
1028.322561
1024.880407
1021.825085
1019.163359
1016.901101
1015.043304
1013.594080
1012.556628
1011.933238
1011.725289
1011.933239
1012.556629
1013.594082
1015.043307
1016.901100
1019.163362
1021.825091
1024.880410
1028.322568
1032.143961
1036.336151
1040.889875
1045.795072
1051.040909
1056.615798
1052.054798
1046.302568
1040.889868
1035.828643
1031.130063
1026.804526
1022.861570
1019.309922
1016.157412
1013.411017
1011.076797
1009.159905
1007.664582
1006.594129
1005.950909
1005.736345
1005.950910
1006.594130
1007.664584
1009.159908
1011.076797
1013.411021
1016.157417
1019.309925
1022.861577
1026.804527
1031.130069
1035.828645
1040.889874
1046.302580
1052.054803
1047.820614
1041.903756
1036.336145
1031.130068
1026.297014
1021.847681
1017.791878
1014.138582
1010.895847
1008.070850
1005.669825
1003.698071
1002.159952
1001.058863
1000.397234
1000.176529
1000.397234
1001.058863
1002.159954
1003.698074
1005.669824
1008.070853
1010.895852
1014.138584
1017.791885
1021.847682
1026.297020
1031.130069
1036.336151
1041.903767
1047.820619
1043.922597
1037.854181
1032.143957
1026.804528
1021.847677
1017.284376
1013.124685
1009.377811
1006.052014
1003.154657
1000.692130
998.669871
997.092353
995.963060
995.284484
995.058125
995.284484
995.963061
997.092355
998.669874
1000.692129
1003.154660
1006.052020
1009.377813
1013.124692
1017.284377
1021.847683
1026.804529
1032.143962
1037.854191
1043.922601
1040.369355
1034.162785
1028.322564
1022.861578
1017.791879
1013.124691
1008.870300
1005.038125
1001.636614
998.673295
996.154707
994.086409
992.472978
991.317975
990.623951
990.392439
990.623951
991.317976
992.472980
994.086412
996.154706
998.673299
1001.636619
1005.038128
1008.870307
1013.124691
1017.791885
1022.861578
1028.322568
1034.162796
1040.369359
1037.168737
1030.837725
1024.880406
1019.309927
1014.138580
1009.377813
1005.038122
1001.129111
997.659399
994.636665
992.067579
989.957811
988.312030
987.133870
986.425930
986.189777
986.425930
987.133871
988.312033
989.957815
992.067578
994.636669
997.659405
1001.129113
1005.038129
1009.377813
1014.138585
1019.309926
1024.880411
1030.837736
1037.168741
1034.327814
1027.886344
1021.825088
1016.157419
1010.895848
1006.052020
1001.636614
997.659402
994.129154
991.053683
988.439773
986.293196
984.618701
983.419986
982.699694
982.459420
982.699695
983.419986
984.618704
986.293200
988.439772
991.053686
994.129160
997.659405
1001.636621
1006.052020
1010.895853
1016.157419
1021.825092
1027.886355
1034.327817
1031.852860
1025.315163
1019.163358
1013.411021
1008.070848
1003.154659
998.673291
994.636665
991.053679
987.932263
985.279305
983.100661
981.401151
980.184527
979.453476
979.209613
979.453476
980.184528
981.401153
983.100664
985.279304
987.932266
991.053684
994.636667
998.673298
1003.154659
1008.070853
1013.411021
1019.163362
1025.315173
1031.852864
1029.749345
1023.129861
1016.901097
1011.076799
1005.669821
1000.692130
996.154701
992.067576
988.439767
985.279302
982.593156
980.387257
978.666486
977.434643
976.694446
976.447532
976.694446
977.434643
978.666488
980.387260
982.593155
985.279306
988.439772
992.067578
996.154708
1000.692130
1005.669826
1011.076798
1016.901101
1023.129871
1029.749348
1028.021915
1021.335267
1015.043304
1009.159910
1003.698070
998.669874
994.086406
989.957812
986.293193
983.100662
980.387261
978.158979
976.420749
975.176407
974.428700
974.179280
974.428700
975.176408
976.420751
978.158983
980.387259
983.100665
986.293199
989.957814
994.086413
998.669873
1003.698075
1009.159909
1015.043308
1021.335278
1028.021918
1026.674384
1019.935343
1013.594079
1007.664586
1002.159950
997.092356
992.472974
988.312031
984.618698
981.401151
978.666489
976.420748
974.668898
973.414806
972.661240
972.409867
972.661240
973.414807
974.668901
976.420752
978.666488
981.401155
984.618704
988.312033
992.472981
997.092355
1002.159956
1007.664586
1013.594083
1019.935354
1026.674387
1025.709730
1018.933183
1012.556626
1006.594132
1001.058860
995.963061
991.317970
987.133869
983.419981
980.184526
977.434645
975.176405
973.414805
972.153733
971.395973
971.143200
971.395973
972.153734
973.414807
975.176409
977.434643
980.184530
983.419986
987.133871
991.317977
995.963061
1001.058865
1006.594132
1012.556630
1018.933193
1025.709734
1025.130084
1018.331000
1011.933236
1005.950913
1000.397231
995.284485
990.623946
986.425929
982.699690
979.453475
976.694448
974.428698
972.661239
971.395973
970.635693
970.382080
970.635693
971.395974
972.661241
974.428701
976.694447
979.453479
982.699695
986.425931
990.623953
995.284485
1000.397237
1005.950912
1011.933241
1018.331010
1025.130088
1024.936727
1018.130124
1011.725287
1005.736348
1000.176526
995.058127
990.392434
986.189776
982.459416
979.209612
976.447534
974.179279
972.409865
971.143201
970.382080
970.128186
970.382080
971.143201
972.409868
974.179282
976.447533
979.209616
982.459422
986.189778
990.392442
995.058127
1000.176532
1005.736348
1011.725291
1018.130135
1024.936730
1025.130084
1018.331000
1011.933236
1005.950913
1000.397231
995.284485
990.623946
986.425929
982.699690
979.453475
976.694448
974.428698
972.661239
971.395973
970.635693
970.382080
970.635694
971.395974
972.661242
974.428702
976.694447
979.453479
982.699696
986.425932
990.623953
995.284485
1000.397237
1005.950912
1011.933241
1018.331011
1025.130088
1025.709730
1018.933183
1012.556626
1006.594132
1001.058860
995.963061
991.317970
987.133869
983.419981
980.184527
977.434645
975.176405
973.414805
972.153733
971.395973
971.143201
971.395974
972.153734
973.414808
975.176409
977.434644
980.184530
983.419987
987.133871
991.317978
995.963062
1001.058866
1006.594132
1012.556631
1018.933194
1025.709734
1026.674384
1019.935343
1013.594079
1007.664586
1002.159950
997.092355
992.472974
988.312031
984.618698
981.401151
978.666489
976.420749
974.668898
973.414806
972.661241
972.409867
972.661241
973.414807
974.668901
976.420753
978.666489
981.401155
984.618704
988.312033
992.472982
997.092356
1002.159956
1007.664586
1013.594084
1019.935355
1026.674388
1028.021915
1021.335267
1015.043304
1009.159910
1003.698070
998.669874
994.086406
989.957812
986.293193
983.100662
980.387261
978.158980
976.420749
975.176407
974.428700
974.179281
974.428701
975.176408
976.420752
978.158984
980.387260
983.100666
986.293200
989.957815
994.086414
998.669875
1003.698077
1009.159911
1015.043309
1021.335279
1028.021919
1029.749346
1023.129862
1016.901098
1011.076800
1005.669822
1000.692131
996.154702
992.067578
988.439768
985.279304
982.593158
980.387259
978.666488
977.434645
976.694448
976.447534
976.694448
977.434646
978.666491
980.387263
982.593157
985.279308
988.439775
992.067581
996.154710
1000.692132
1005.669829
1011.076801
1016.901104
1023.129874
1029.749351
1031.852859
1025.315161
1019.163356
1013.411020
1008.070846
1003.154657
998.673290
994.636664
991.053677
987.932262
985.279304
983.100660
981.401150
980.184526
979.453475
979.209612
979.453476
980.184528
981.401153
983.100664
985.279304
987.932266
991.053684
994.636667
998.673299
1003.154659
1008.070854
1013.411021
1019.163363
1025.315174
1031.852864
1034.327815
1027.886345
1021.825089
1016.157421
1010.895849
1006.052022
1001.636615
997.659404
994.129156
991.053685
988.439776
986.293199
984.618704
983.419988
982.699697
982.459424
982.699698
983.419989
984.618707
986.293203
988.439776
991.053690
994.129163
997.659408
1001.636625
1006.052024
1010.895857
1016.157423
1021.825096
1027.886358
1034.327821
1037.168735
1030.837723
1024.880404
1019.309924
1014.138578
1009.377811
1005.038120
1001.129109
997.659397
994.636663
992.067577
989.957810
988.312029
987.133869
986.425929
986.189776
986.425930
987.133870
988.312032
989.957814
992.067578
994.636668
997.659405
1001.129114
1005.038129
1009.377814
1014.138586
1019.309927
1024.880412
1030.837737
1037.168742
1040.369357
1034.162787
1028.322566
1022.861580
1017.791882
1013.124693
1008.870303
1005.038129
1001.636618
998.673299
996.154711
994.086414
992.472982
991.317980
990.623956
990.392444
990.623956
991.317981
992.472986
994.086418
996.154712
998.673304
1001.636626
1005.038134
1008.870313
1013.124697
1017.791891
1022.861584
1028.322575
1034.162802
1040.369365
1043.922596
1037.854179
1032.143956
1026.804527
1021.847676
1017.284375
1013.124685
1009.377811
1006.052015
1003.154657
1000.692131
998.669871
997.092354
995.963061
995.284485
995.058127
995.284486
995.963062
997.092357
998.669876
1000.692131
1003.154662
1006.052023
1009.377816
1013.124695
1017.284380
1021.847686
1026.804532
1032.143966
1037.854195
1043.922605
1047.820609
1041.903751
1036.336140
1031.130063
1026.297009
1021.847676
1017.791873
1014.138577
1010.895843
1008.070846
1005.669821
1003.698068
1002.159949
1001.058860
1000.397231
1000.176526
1000.397232
1001.058861
1002.159952
1003.698072
1005.669822
1008.070852
1010.895851
1014.138583
1017.791884
1021.847681
1026.297020
1031.130069
1036.336151
1041.903768
1047.820620
1052.054797
1046.302567
1040.889868
1035.828643
1031.130063
1026.804527
1022.861571
1019.309924
1016.157414
1013.411019
1011.076800
1009.159908
1007.664585
1006.594132
1005.950912
1005.736348
1005.950913
1006.594133
1007.664588
1009.159912
1011.076801
1013.411025
1016.157422
1019.309930
1022.861582
1026.804533
1031.130074
1035.828651
1040.889881
1046.302586
1052.054810
1056.615785
1051.040891
1045.795060
1040.889868
1036.336140
1032.143956
1028.322558
1024.880403
1021.825082
1019.163356
1016.901098
1015.043301
1013.594078
1012.556626
1011.933236
1011.725287
1011.933237
1012.556627
1013.594081
1015.043306
1016.901099
1019.163362
1021.825090
1024.880409
1028.322569
1032.143962
1036.336152
1040.889876
1045.795075
1051.040913
1056.615801
1061.493520
1056.108276
1051.040902
1046.302579
1041.903764
1037.854192
1034.162793
1030.837736
1027.886353
1025.315175
1023.129876
1021.335279
1019.935356
1018.933197
1018.331014
1018.130139
1018.331015
1018.933198
1019.935359
1021.335284
1023.129877
1025.315181
1027.886361
1030.837742
1034.162804
1037.854199
1041.903776
1046.302589
1051.040919
1056.108302
1061.493542
1066.677199
1061.493505
1056.615785
1052.054797
1047.820610
1043.922596
1040.369350
1037.168735
1034.327809
1031.852859
1029.749346
1028.021914
1026.674383
1025.709731
1025.130085
1024.936728
1025.130086
1025.709732
1026.674387
1028.021918
1029.749348
1031.852865
1034.327817
1037.168741
1040.369360
1043.922603
1047.820622
1052.054807
1056.615802
1061.493535
1066.677232
