# vtk DataFile Version 2.0
Unstructured Grid Example
ASCII
DATASET UNSTRUCTURED_GRID

POINTS 961 float
0.1 0.005 0
0.0966667 0.005 0
0.0933333 0.005 0
0.09 0.005 0
0.0866667 0.005 0
0.0833333 0.005 0
0.08 0.005 0
0.0766667 0.005 0
0.0733333 0.005 0
0.07 0.005 0
0.0666667 0.005 0
0.0633333 0.005 0
0.06 0.005 0
0.0566667 0.005 0
0.0533333 0.005 0
0.05 0.005 0
0.0466667 0.005 0
0.0433333 0.005 0
0.04 0.005 0
0.0366667 0.005 0
0.0333333 0.005 0
0.03 0.005 0
0.0266667 0.005 0
0.0233333 0.005 0
0.02 0.005 0
0.0166667 0.005 0
0.0133333 0.005 0
0.01 0.005 0
0.00666667 0.005 0
0.00333333 0.005 0
0 0.005 0
0.1 0.00166667 0
0.0966667 0.00166667 0
0.0933333 0.00166667 0
0.09 0.00166667 0
0.0866667 0.00166667 0
0.0833333 0.00166667 0
0.08 0.00166667 0
0.0766667 0.00166667 0
0.0733333 0.00166667 0
0.07 0.00166667 0
0.0666667 0.00166667 0
0.0633333 0.00166667 0
0.06 0.00166667 0
0.0566667 0.00166667 0
0.0533333 0.00166667 0
0.05 0.00166667 0
0.0466667 0.00166667 0
0.0433333 0.00166667 0
0.04 0.00166667 0
0.0366667 0.00166667 0
0.0333333 0.00166667 0
0.03 0.00166667 0
0.0266667 0.00166667 0
0.0233333 0.00166667 0
0.02 0.00166667 0
0.0166667 0.00166667 0
0.0133333 0.00166667 0
0.01 0.00166667 0
0.00666667 0.00166667 0
0.00333333 0.00166667 0
0 0.00166667 0
0.1 -0.00166667 0
0.0966667 -0.00166667 0
0.0933333 -0.00166667 0
0.09 -0.00166667 0
0.0866667 -0.00166667 0
0.0833333 -0.00166667 0
0.08 -0.00166667 0
0.0766667 -0.00166667 0
0.0733333 -0.00166667 0
0.07 -0.00166667 0
0.0666667 -0.00166667 0
0.0633333 -0.00166667 0
0.06 -0.00166667 0
0.0566667 -0.00166667 0
0.0533333 -0.00166667 0
0.05 -0.00166667 0
0.0466667 -0.00166667 0
0.0433333 -0.00166667 0
0.04 -0.00166667 0
0.0366667 -0.00166667 0
0.0333333 -0.00166667 0
0.03 -0.00166667 0
0.0266667 -0.00166667 0
0.0233333 -0.00166667 0
0.02 -0.00166667 0
0.0166667 -0.00166667 0
0.0133333 -0.00166667 0
0.01 -0.00166667 0
0.00666667 -0.00166667 0
0.00333333 -0.00166667 0
0 -0.00166667 0
0.1 -0.005 0
0.0966667 -0.005 0
0.0933333 -0.005 0
0.09 -0.005 0
0.0866667 -0.005 0
0.0833333 -0.005 0
0.08 -0.005 0
0.0766667 -0.005 0
0.0733333 -0.005 0
0.07 -0.005 0
0.0666667 -0.005 0
0.0633333 -0.005 0
0.06 -0.005 0
0.0566667 -0.005 0
0.0533333 -0.005 0
0.05 -0.005 0
0.0466667 -0.005 0
0.0433333 -0.005 0
0.04 -0.005 0
0.0366667 -0.005 0
0.0333333 -0.005 0
0.03 -0.005 0
0.0266667 -0.005 0
0.0233333 -0.005 0
0.02 -0.005 0
0.0166667 -0.005 0
0.0133333 -0.005 0
0.01 -0.005 0
0.00666667 -0.005 0
0.00333333 -0.005 0
0 -0.005 0
0.1 -0.00833333 0
0.0966667 -0.00833333 0
0.0933333 -0.00833333 0
0.09 -0.00833333 0
0.0866667 -0.00833333 0
0.0833333 -0.00833333 0
0.08 -0.00833333 0
0.0766667 -0.00833333 0
0.0733333 -0.00833333 0
0.07 -0.00833333 0
0.0666667 -0.00833333 0
0.0633333 -0.00833333 0
0.06 -0.00833333 0
0.0566667 -0.00833333 0
0.0533333 -0.00833333 0
0.05 -0.00833333 0
0.0466667 -0.00833333 0
0.0433333 -0.00833333 0
0.04 -0.00833333 0
0.0366667 -0.00833333 0
0.0333333 -0.00833333 0
0.03 -0.00833333 0
0.0266667 -0.00833333 0
0.0233333 -0.00833333 0
0.02 -0.00833333 0
0.0166667 -0.00833333 0
0.0133333 -0.00833333 0
0.01 -0.00833333 0
0.00666667 -0.00833333 0
0.00333333 -0.00833333 0
0 -0.00833333 0
0.1 -0.0116667 0
0.0966667 -0.0116667 0
0.0933333 -0.0116667 0
0.09 -0.0116667 0
0.0866667 -0.0116667 0
0.0833333 -0.0116667 0
0.08 -0.0116667 0
0.0766667 -0.0116667 0
0.0733333 -0.0116667 0
0.07 -0.0116667 0
0.0666667 -0.0116667 0
0.0633333 -0.0116667 0
0.06 -0.0116667 0
0.0566667 -0.0116667 0
0.0533333 -0.0116667 0
0.05 -0.0116667 0
0.0466667 -0.0116667 0
0.0433333 -0.0116667 0
0.04 -0.0116667 0
0.0366667 -0.0116667 0
0.0333333 -0.0116667 0
0.03 -0.0116667 0
0.0266667 -0.0116667 0
0.0233333 -0.0116667 0
0.02 -0.0116667 0
0.0166667 -0.0116667 0
0.0133333 -0.0116667 0
0.01 -0.0116667 0
0.00666667 -0.0116667 0
0.00333333 -0.0116667 0
0 -0.0116667 0
0.1 -0.015 0
0.0966667 -0.015 0
0.0933333 -0.015 0
0.09 -0.015 0
0.0866667 -0.015 0
0.0833333 -0.015 0
0.08 -0.015 0
0.0766667 -0.015 0
0.0733333 -0.015 0
0.07 -0.015 0
0.0666667 -0.015 0
0.0633333 -0.015 0
0.06 -0.015 0
0.0566667 -0.015 0
0.0533333 -0.015 0
0.05 -0.015 0
0.0466667 -0.015 0
0.0433333 -0.015 0
0.04 -0.015 0
0.0366667 -0.015 0
0.0333333 -0.015 0
0.03 -0.015 0
0.0266667 -0.015 0
0.0233333 -0.015 0
0.02 -0.015 0
0.0166667 -0.015 0
0.0133333 -0.015 0
0.01 -0.015 0
0.00666667 -0.015 0
0.00333333 -0.015 0
0 -0.015 0
0.1 -0.0183333 0
0.0966667 -0.0183333 0
0.0933333 -0.0183333 0
0.09 -0.0183333 0
0.0866667 -0.0183333 0
0.0833333 -0.0183333 0
0.08 -0.0183333 0
0.0766667 -0.0183333 0
0.0733333 -0.0183333 0
0.07 -0.0183333 0
0.0666667 -0.0183333 0
0.0633333 -0.0183333 0
0.06 -0.0183333 0
0.0566667 -0.0183333 0
0.0533333 -0.0183333 0
0.05 -0.0183333 0
0.0466667 -0.0183333 0
0.0433333 -0.0183333 0
0.04 -0.0183333 0
0.0366667 -0.0183333 0
0.0333333 -0.0183333 0
0.03 -0.0183333 0
0.0266667 -0.0183333 0
0.0233333 -0.0183333 0
0.02 -0.0183333 0
0.0166667 -0.0183333 0
0.0133333 -0.0183333 0
0.01 -0.0183333 0
0.00666667 -0.0183333 0
0.00333333 -0.0183333 0
0 -0.0183333 0
0.1 -0.0216667 0
0.0966667 -0.0216667 0
0.0933333 -0.0216667 0
0.09 -0.0216667 0
0.0866667 -0.0216667 0
0.0833333 -0.0216667 0
0.08 -0.0216667 0
0.0766667 -0.0216667 0
0.0733333 -0.0216667 0
0.07 -0.0216667 0
0.0666667 -0.0216667 0
0.0633333 -0.0216667 0
0.06 -0.0216667 0
0.0566667 -0.0216667 0
0.0533333 -0.0216667 0
0.05 -0.0216667 0
0.0466667 -0.0216667 0
0.0433333 -0.0216667 0
0.04 -0.0216667 0
0.0366667 -0.0216667 0
0.0333333 -0.0216667 0
0.03 -0.0216667 0
0.0266667 -0.0216667 0
0.0233333 -0.0216667 0
0.02 -0.0216667 0
0.0166667 -0.0216667 0
0.0133333 -0.0216667 0
0.01 -0.0216667 0
0.00666667 -0.0216667 0
0.00333333 -0.0216667 0
0 -0.0216667 0
0.1 -0.025 0
0.0966667 -0.025 0
0.0933333 -0.025 0
0.09 -0.025 0
0.0866667 -0.025 0
0.0833333 -0.025 0
0.08 -0.025 0
0.0766667 -0.025 0
0.0733333 -0.025 0
0.07 -0.025 0
0.0666667 -0.025 0
0.0633333 -0.025 0
0.06 -0.025 0
0.0566667 -0.025 0
0.0533333 -0.025 0
0.05 -0.025 0
0.0466667 -0.025 0
0.0433333 -0.025 0
0.04 -0.025 0
0.0366667 -0.025 0
0.0333333 -0.025 0
0.03 -0.025 0
0.0266667 -0.025 0
0.0233333 -0.025 0
0.02 -0.025 0
0.0166667 -0.025 0
0.0133333 -0.025 0
0.01 -0.025 0
0.00666667 -0.025 0
0.00333333 -0.025 0
0 -0.025 0
0.1 -0.0283333 0
0.0966667 -0.0283333 0
0.0933333 -0.0283333 0
0.09 -0.0283333 0
0.0866667 -0.0283333 0
0.0833333 -0.0283333 0
0.08 -0.0283333 0
0.0766667 -0.0283333 0
0.0733333 -0.0283333 0
0.07 -0.0283333 0
0.0666667 -0.0283333 0
0.0633333 -0.0283333 0
0.06 -0.0283333 0
0.0566667 -0.0283333 0
0.0533333 -0.0283333 0
0.05 -0.0283333 0
0.0466667 -0.0283333 0
0.0433333 -0.0283333 0
0.04 -0.0283333 0
0.0366667 -0.0283333 0
0.0333333 -0.0283333 0
0.03 -0.0283333 0
0.0266667 -0.0283333 0
0.0233333 -0.0283333 0
0.02 -0.0283333 0
0.0166667 -0.0283333 0
0.0133333 -0.0283333 0
0.01 -0.0283333 0
0.00666667 -0.0283333 0
0.00333333 -0.0283333 0
0 -0.0283333 0
0.1 -0.0316667 0
0.0966667 -0.0316667 0
0.0933333 -0.0316667 0
0.09 -0.0316667 0
0.0866667 -0.0316667 0
0.0833333 -0.0316667 0
0.08 -0.0316667 0
0.0766667 -0.0316667 0
0.0733333 -0.0316667 0
0.07 -0.0316667 0
0.0666667 -0.0316667 0
0.0633333 -0.0316667 0
0.06 -0.0316667 0
0.0566667 -0.0316667 0
0.0533333 -0.0316667 0
0.05 -0.0316667 0
0.0466667 -0.0316667 0
0.0433333 -0.0316667 0
0.04 -0.0316667 0
0.0366667 -0.0316667 0
0.0333333 -0.0316667 0
0.03 -0.0316667 0
0.0266667 -0.0316667 0
0.0233333 -0.0316667 0
0.02 -0.0316667 0
0.0166667 -0.0316667 0
0.0133333 -0.0316667 0
0.01 -0.0316667 0
0.00666667 -0.0316667 0
0.00333333 -0.0316667 0
0 -0.0316667 0
0.1 -0.035 0
0.0966667 -0.035 0
0.0933333 -0.035 0
0.09 -0.035 0
0.0866667 -0.035 0
0.0833333 -0.035 0
0.08 -0.035 0
0.0766667 -0.035 0
0.0733333 -0.035 0
0.07 -0.035 0
0.0666667 -0.035 0
0.0633333 -0.035 0
0.06 -0.035 0
0.0566667 -0.035 0
0.0533333 -0.035 0
0.05 -0.035 0
0.0466667 -0.035 0
0.0433333 -0.035 0
0.04 -0.035 0
0.0366667 -0.035 0
0.0333333 -0.035 0
0.03 -0.035 0
0.0266667 -0.035 0
0.0233333 -0.035 0
0.02 -0.035 0
0.0166667 -0.035 0
0.0133333 -0.035 0
0.01 -0.035 0
0.00666667 -0.035 0
0.00333333 -0.035 0
0 -0.035 0
0.1 -0.0383333 0
0.0966667 -0.0383333 0
0.0933333 -0.0383333 0
0.09 -0.0383333 0
0.0866667 -0.0383333 0
0.0833333 -0.0383333 0
0.08 -0.0383333 0
0.0766667 -0.0383333 0
0.0733333 -0.0383333 0
0.07 -0.0383333 0
0.0666667 -0.0383333 0
0.0633333 -0.0383333 0
0.06 -0.0383333 0
0.0566667 -0.0383333 0
0.0533333 -0.0383333 0
0.05 -0.0383333 0
0.0466667 -0.0383333 0
0.0433333 -0.0383333 0
0.04 -0.0383333 0
0.0366667 -0.0383333 0
0.0333333 -0.0383333 0
0.03 -0.0383333 0
0.0266667 -0.0383333 0
0.0233333 -0.0383333 0
0.02 -0.0383333 0
0.0166667 -0.0383333 0
0.0133333 -0.0383333 0
0.01 -0.0383333 0
0.00666667 -0.0383333 0
0.00333333 -0.0383333 0
0 -0.0383333 0
0.1 -0.0416667 0
0.0966667 -0.0416667 0
0.0933333 -0.0416667 0
0.09 -0.0416667 0
0.0866667 -0.0416667 0
0.0833333 -0.0416667 0
0.08 -0.0416667 0
0.0766667 -0.0416667 0
0.0733333 -0.0416667 0
0.07 -0.0416667 0
0.0666667 -0.0416667 0
0.0633333 -0.0416667 0
0.06 -0.0416667 0
0.0566667 -0.0416667 0
0.0533333 -0.0416667 0
0.05 -0.0416667 0
0.0466667 -0.0416667 0
0.0433333 -0.0416667 0
0.04 -0.0416667 0
0.0366667 -0.0416667 0
0.0333333 -0.0416667 0
0.03 -0.0416667 0
0.0266667 -0.0416667 0
0.0233333 -0.0416667 0
0.02 -0.0416667 0
0.0166667 -0.0416667 0
0.0133333 -0.0416667 0
0.01 -0.0416667 0
0.00666667 -0.0416667 0
0.00333333 -0.0416667 0
0 -0.0416667 0
0.1 -0.045 0
0.0966667 -0.045 0
0.0933333 -0.045 0
0.09 -0.045 0
0.0866667 -0.045 0
0.0833333 -0.045 0
0.08 -0.045 0
0.0766667 -0.045 0
0.0733333 -0.045 0
0.07 -0.045 0
0.0666667 -0.045 0
0.0633333 -0.045 0
0.06 -0.045 0
0.0566667 -0.045 0
0.0533333 -0.045 0
0.05 -0.045 0
0.0466667 -0.045 0
0.0433333 -0.045 0
0.04 -0.045 0
0.0366667 -0.045 0
0.0333333 -0.045 0
0.03 -0.045 0
0.0266667 -0.045 0
0.0233333 -0.045 0
0.02 -0.045 0
0.0166667 -0.045 0
0.0133333 -0.045 0
0.01 -0.045 0
0.00666667 -0.045 0
0.00333333 -0.045 0
0 -0.045 0
0.1 -0.0483333 0
0.0966667 -0.0483333 0
0.0933333 -0.0483333 0
0.09 -0.0483333 0
0.0866667 -0.0483333 0
[...]
POINT_DATA 961
SCALARS Temp float 1
LOOKUP_TABLE default
924.662509
913.957203
903.883856
894.464691
885.720492
877.670606
870.332771
863.723215
857.856494
852.745581
848.401737
844.834536
842.051859
840.059840
838.862868
838.463584
838.862868
840.059841
842.051863
844.834541
848.401735
852.745587
857.856504
863.723219
870.332784
877.670609
885.720504
894.464695
903.883871
913.957234
924.662534
913.957219
902.835679
892.370669
882.585280
873.501101
865.138231
857.515095
850.648555
844.553733
839.244104
834.731368
831.025472
828.134603
826.065133
824.821622
824.406813
824.821622
826.065134
828.134607
831.025478
834.731366
839.244110
844.553743
850.648560
857.515109
865.138233
873.501113
882.585284
892.370684
902.835706
913.957235
903.883859
892.370659
881.537109
871.407114
862.003023
853.345643
845.454049
838.345695
832.036236
826.539621
821.867964
818.031560
815.038885
812.896536
811.609233
811.179816
811.609233
812.896537
815.038889
818.031566
821.867962
826.539628
832.036246
838.345700
845.454063
853.345645
862.003035
871.407117
881.537122
892.370684
903.883872
894.464685
882.585260
871.407105
860.954883
851.251656
842.318893
834.176275
826.841810
820.331653
814.660197
809.839938
805.881501
802.793632
800.583137
799.254886
798.811810
799.254887
800.583138
802.793637
805.881507
809.839936
814.660203
820.331664
826.841815
834.176289
842.318895
851.251668
860.954885
871.407116
882.585284
894.464695
885.720495
873.501090
862.003024
851.251667
841.270741
832.082329
823.706675
816.162304
809.465830
803.632061
798.673850
794.602126
791.425884
789.152127
787.785862
787.330106
787.785862
789.152128
791.425889
794.602132
798.673848
803.632067
809.465841
816.162308
823.706689
832.082330
841.270753
851.251669
862.003035
873.501113
885.720504
877.670603
865.138213
853.345637
842.318897
832.082322
822.658559
814.068372
806.330761
799.462765
793.479571
788.394361
784.218345
780.960748
778.628750
777.227490
776.760060
777.227491
778.628751
780.960752
784.218351
788.394359
793.479577
799.462776
806.330765
814.068386
822.658560
832.082333
842.318898
853.345647
865.138235
877.670611
870.332778
857.515088
845.454054
834.176290
823.706679
814.068384
805.282642
797.368883
790.344538
784.225136
779.024161
774.753078
771.421322
769.036237
767.603077
767.125006
767.603077
769.036238
771.421327
774.753085
779.024159
784.225142
790.344549
797.368887
805.282656
814.068384
823.706689
834.176290
845.454063
857.515109
870.332785
863.723215
850.648541
838.345693
826.841819
816.162300
806.330765
797.368876
789.296453
782.131275
775.889184
770.583934
766.227219
762.828663
760.395759
758.933866
758.446210
758.933866
760.395760
762.828668
766.227225
770.583931
775.889190
782.131286
789.296457
797.368890
806.330765
816.162311
826.841818
838.345702
850.648562
863.723222
857.856501
844.553724
832.036240
820.331668
809.465834
799.462777
790.344537
782.131282
774.841100
768.490109
763.092303
758.659580
755.201733
752.726384
751.238986
750.742823
751.238987
752.726385
755.201738
758.659587
763.092300
768.490115
774.841111
782.131286
790.344551
799.462776
809.465844
820.331667
832.036249
844.553745
857.856507
852.745581
839.244089
826.539619
814.660205
803.632057
793.479575
784.225128
775.889184
768.490101
762.044239
756.565801
752.066862
748.557362
746.045037
744.535420
744.031845
744.535421
746.045038
748.557367
752.066869
756.565798
762.044245
768.490112
775.889187
784.225142
793.479575
803.632067
814.660203
826.539627
839.244110
852.745588
848.401732
834.731348
821.867956
809.839941
798.673841
788.394360
779.024148
770.583928
763.092289
756.565795
751.018827
746.463610
742.910209
740.366457
738.837956
738.328082
738.837957
740.366458
742.910214
746.463617
751.018824
756.565802
763.092300
770.583932
779.024162
788.394359
798.673851
809.839939
821.867965
834.731369
848.401738
844.834537
831.025458
818.031559
805.881511
794.602124
784.218351
774.753072
766.227220
758.659574
752.066864
746.463618
741.862186
738.272733
735.703173
734.159165
733.644117
734.159165
735.703174
738.272738
741.862193
746.463615
752.066871
758.659585
766.227224
774.753086
784.218350
794.602134
805.881509
818.031567
831.025479
844.834543
842.051860
828.134588
815.038883
802.793642
791.425881
780.960753
771.421314
762.828664
755.201726
748.557363
742.910216
738.272732
734.655157
732.065464
730.509359
729.990276
730.509360
732.065465
734.655162
738.272739
742.910213
748.557370
755.201737
762.828668
771.421329
780.960752
791.425892
802.793640
815.038891
828.134609
842.051866
840.059839
826.065116
812.896532
800.583144
789.152121
778.628753
769.036226
760.395757
752.726374
746.045035
740.366461
735.703169
732.065461
729.461357
727.896591
727.374620
727.896592
729.461358
732.065466
735.703176
740.366458
746.045041
752.726386
760.395761
769.036241
778.628752
789.152131
800.583142
812.896540
826.065137
840.059845
838.862866
824.821604
811.609229
799.254893
787.785856
777.227493
767.603067
758.933864
751.238976
744.535418
738.837961
734.159161
730.509356
727.896592
726.326623
725.802916
726.326624
727.896593
730.509362
734.159168
738.837958
744.535425
751.238988
758.933868
767.603082
777.227493
787.785867
799.254891
811.609237
824.821626
838.862873
838.463582
824.406796
811.179812
798.811817
787.330100
776.760063
767.124996
758.446208
750.742813
744.031843
738.328086
733.644114
729.990274
727.374620
725.802916
725.278629
725.802917
727.374622
729.990279
733.644121
738.328084
744.031851
750.742825
758.446212
767.125011
776.760063
787.330111
798.811816
811.179821
824.406818
838.463589
838.862866
824.821604
811.609229
799.254893
787.785856
777.227493
767.603067
758.933864
751.238976
744.535419
738.837961
734.159161
730.509357
727.896592
726.326623
725.802916
726.326624
727.896593
730.509362
734.159169
738.837958
744.535426
751.238989
758.933868
767.603082
777.227493
787.785868
799.254892
811.609238
824.821627
838.862873
840.059838
826.065115
812.896532
800.583144
789.152121
778.628753
769.036226
760.395757
752.726374
746.045035
740.366461
735.703169
732.065462
729.461357
727.896592
727.374620
727.896593
729.461359
732.065467
735.703177
740.366459
746.045043
752.726387
760.395762
769.036242
778.628753
789.152133
800.583144
812.896541
826.065138
840.059846
842.051859
828.134588
815.038883
802.793641
791.425881
780.960753
771.421314
762.828664
755.201726
748.557363
742.910217
738.272733
734.655158
732.065465
730.509360
729.990277
730.509361
732.065467
734.655164
738.272741
742.910215
748.557371
755.201739
762.828670
771.421331
780.960754
791.425894
802.793642
815.038893
828.134611
842.051868
844.834537
831.025458
818.031558
805.881511
794.602123
784.218351
774.753072
766.227220
758.659574
752.066864
746.463618
741.862186
738.272734
735.703174
734.159166
733.644118
734.159167
735.703175
738.272740
741.862195
746.463617
752.066873
758.659587
766.227226
774.753088
784.218353
794.602137
805.881512
818.031570
831.025482
844.834546
848.401734
834.731350
821.867958
809.839943
798.673843
788.394363
779.024150
770.583931
763.092292
756.565798
751.018830
746.463614
742.910213
740.366461
738.837961
738.328086
738.837962
740.366463
742.910219
746.463622
751.018829
756.565807
763.092306
770.583938
779.024168
788.394365
798.673857
809.839945
821.867970
834.731375
848.401744
852.745578
839.244085
826.539615
814.660201
803.632053
793.479572
784.225125
775.889180
768.490098
762.044236
756.565798
752.066860
748.557360
746.045035
744.535418
744.031843
744.535419
746.045037
748.557366
752.066868
756.565798
762.044245
768.490112
775.889188
784.225143
793.479575
803.632069
814.660205
826.539629
839.244111
852.745589
857.856503
844.553726
832.036242
820.331671
809.465836
799.462780
790.344541
782.131286
774.841104
768.490113
763.092308
758.659585
755.201738
752.726390
751.238992
750.742829
751.238993
752.726392
755.201745
758.659594
763.092307
768.490123
774.841119
782.131294
790.344560
799.462785
809.465852
820.331675
832.036257
844.553754
857.856515
863.723210
850.648536
838.345688
826.841814
816.162295
806.330761
797.368871
789.296449
782.131271
775.889180
770.583930
766.227216
762.828660
760.395756
758.933863
758.446208
758.933864
760.395759
762.828667
766.227225
770.583931
775.889190
782.131286
789.296458
797.368891
806.330767
816.162312
826.841820
838.345704
850.648564
863.723224
870.332782
857.515092
845.454059
834.176295
823.706684
814.068390
805.282648
797.368890
790.344546
784.225144
779.024170
774.753087
771.421331
769.036246
767.603087
767.125016
767.603088
769.036249
771.421338
774.753096
779.024171
784.225155
790.344561
797.368900
805.282669
814.068397
823.706703
834.176303
845.454076
857.515122
870.332798
877.670601
865.138210
853.345635
842.318895
832.082320
822.658558
814.068372
806.330760
799.462765
793.479571
788.394362
784.218346
780.960749
778.628753
777.227493
776.760063
777.227494
778.628755
780.960756
784.218355
788.394363
793.479582
799.462782
806.330771
814.068393
822.658566
832.082340
842.318905
853.345655
865.138243
877.670619
885.720485
873.501080
862.003014
851.251657
841.270731
832.082320
823.706666
816.162295
809.465822
803.632053
798.673842
794.602119
791.425877
789.152120
787.785856
787.330100
787.785857
789.152123
791.425884
794.602128
798.673844
803.632064
809.465839
816.162306
823.706688
832.082330
841.270753
851.251669
862.003037
873.501115
885.720507
894.464683
882.585258
871.407103
860.954883
851.251657
842.318895
834.176277
826.841813
820.331657
814.660201
809.839942
805.881506
802.793638
800.583143
799.254893
798.811817
799.254894
800.583146
802.793645
805.881516
809.839944
814.660212
820.331673
826.841825
834.176300
842.318906
851.251680
860.954898
871.407130
882.585297
894.464709
903.883847
892.370647
881.537097
871.407103
862.003013
853.345634
845.454041
838.345687
832.036229
826.539615
821.867957
818.031554
815.038879
812.896531
811.609228
811.179812
811.609229
812.896534
815.038886
818.031563
821.867960
826.539626
832.036245
838.345699
845.454064
853.345647
862.003038
871.407121
881.537128
892.370691
903.883879
913.957217
902.835677
892.370670
882.585283
873.501106
865.138237
857.515103
850.648563
844.553742
839.244114
834.731379
831.025483
828.134614
826.065145
824.821634
824.406826
824.821635
826.065148
828.134621
831.025492
834.731381
839.244125
844.553759
850.648576
857.515125
865.138250
873.501131
882.585303
892.370705
902.835730
913.957262
924.662490
913.957187
903.883847
894.464683
885.720486
877.670602
870.332767
863.723211
857.856492
852.745579
848.401735
844.834534
842.051858
840.059840
838.862868
838.463584
838.862869
840.059842
842.051864
844.834543
848.401737
852.745590
857.856508
863.723223
870.332789
877.670614
885.720511
894.464703
903.883882
913.957249
924.662556
