# vtk DataFile Version 2.0
Unstructured Grid Example
ASCII
DATASET UNSTRUCTURED_GRID

POINTS 961 float
0.1 0.005 0
0.0966667 0.005 0
0.0933333 0.005 0
0.09 0.005 0
0.0866667 0.005 0
0.0833333 0.005 0
0.08 0.005 0
0.0766667 0.005 0
0.0733333 0.005 0
0.07 0.005 0
0.0666667 0.005 0
0.0633333 0.005 0
0.06 0.005 0
0.0566667 0.005 0
0.0533333 0.005 0
0.05 0.005 0
0.0466667 0.005 0
0.0433333 0.005 0
0.04 0.005 0
0.0366667 0.005 0
0.0333333 0.005 0
0.03 0.005 0
0.0266667 0.005 0
0.0233333 0.005 0
0.02 0.005 0
0.0166667 0.005 0
0.0133333 0.005 0
0.01 0.005 0
0.00666667 0.005 0
0.00333333 0.005 0
0 0.005 0
0.1 0.00166667 0
0.0966667 0.00166667 0
0.0933333 0.00166667 0
0.09 0.00166667 0
0.0866667 0.00166667 0
0.0833333 0.00166667 0
0.08 0.00166667 0
0.0766667 0.00166667 0
0.0733333 0.00166667 0
0.07 0.00166667 0
0.0666667 0.00166667 0
0.0633333 0.00166667 0
0.06 0.00166667 0
0.0566667 0.00166667 0
0.0533333 0.00166667 0
0.05 0.00166667 0
0.0466667 0.00166667 0
0.0433333 0.00166667 0
0.04 0.00166667 0
0.0366667 0.00166667 0
0.0333333 0.00166667 0
0.03 0.00166667 0
0.0266667 0.00166667 0
0.0233333 0.00166667 0
0.02 0.00166667 0
0.0166667 0.00166667 0
0.0133333 0.00166667 0
0.01 0.00166667 0
0.00666667 0.00166667 0
0.00333333 0.00166667 0
0 0.00166667 0
0.1 -0.00166667 0
0.0966667 -0.00166667 0
0.0933333 -0.00166667 0
0.09 -0.00166667 0
0.0866667 -0.00166667 0
0.0833333 -0.00166667 0
0.08 -0.00166667 0
0.0766667 -0.00166667 0
0.0733333 -0.00166667 0
0.07 -0.00166667 0
0.0666667 -0.00166667 0
0.0633333 -0.00166667 0
0.06 -0.00166667 0
0.0566667 -0.00166667 0
0.0533333 -0.00166667 0
0.05 -0.00166667 0
0.0466667 -0.00166667 0
0.0433333 -0.00166667 0
0.04 -0.00166667 0
0.0366667 -0.00166667 0
0.0333333 -0.00166667 0
0.03 -0.00166667 0
0.0266667 -0.00166667 0
0.0233333 -0.00166667 0
0.02 -0.00166667 0
0.0166667 -0.00166667 0
0.0133333 -0.00166667 0
0.01 -0.00166667 0
0.00666667 -0.00166667 0
0.00333333 -0.00166667 0
0 -0.00166667 0
0.1 -0.005 0
0.0966667 -0.005 0
0.0933333 -0.005 0
0.09 -0.005 0
0.0866667 -0.005 0
0.0833333 -0.005 0
0.08 -0.005 0
0.0766667 -0.005 0
0.0733333 -0.005 0
0.07 -0.005 0
0.0666667 -0.005 0
0.0633333 -0.005 0
0.06 -0.005 0
0.0566667 -0.005 0
0.0533333 -0.005 0
0.05 -0.005 0
0.0466667 -0.005 0
0.0433333 -0.005 0
0.04 -0.005 0
0.0366667 -0.005 0
0.0333333 -0.005 0
0.03 -0.005 0
0.0266667 -0.005 0
0.0233333 -0.005 0
0.02 -0.005 0
0.0166667 -0.005 0
0.0133333 -0.005 0
0.01 -0.005 0
0.00666667 -0.005 0
0.00333333 -0.005 0
0 -0.005 0
0.1 -0.00833333 0
0.0966667 -0.00833333 0
0.0933333 -0.00833333 0
0.09 -0.00833333 0
0.0866667 -0.00833333 0
0.0833333 -0.00833333 0
0.08 -0.00833333 0
0.0766667 -0.00833333 0
0.0733333 -0.00833333 0
0.07 -0.00833333 0
0.0666667 -0.00833333 0
0.0633333 -0.00833333 0
0.06 -0.00833333 0
0.0566667 -0.00833333 0
0.0533333 -0.00833333 0
0.05 -0.00833333 0
0.0466667 -0.00833333 0
0.0433333 -0.00833333 0
0.04 -0.00833333 0
0.0366667 -0.00833333 0
0.0333333 -0.00833333 0
0.03 -0.00833333 0
0.0266667 -0.00833333 0
0.0233333 -0.00833333 0
0.02 -0.00833333 0
0.0166667 -0.00833333 0
0.0133333 -0.00833333 0
0.01 -0.00833333 0
0.00666667 -0.00833333 0
0.00333333 -0.00833333 0
0 -0.00833333 0
0.1 -0.0116667 0
0.0966667 -0.0116667 0
0.0933333 -0.0116667 0
0.09 -0.0116667 0
0.0866667 -0.0116667 0
0.0833333 -0.0116667 0
0.08 -0.0116667 0
0.0766667 -0.0116667 0
0.0733333 -0.0116667 0
0.07 -0.0116667 0
0.0666667 -0.0116667 0
0.0633333 -0.0116667 0
0.06 -0.0116667 0
0.0566667 -0.0116667 0
0.0533333 -0.0116667 0
0.05 -0.0116667 0
0.0466667 -0.0116667 0
0.0433333 -0.0116667 0
0.04 -0.0116667 0
0.0366667 -0.0116667 0
0.0333333 -0.0116667 0
0.03 -0.0116667 0
0.0266667 -0.0116667 0
0.0233333 -0.0116667 0
0.02 -0.0116667 0
0.0166667 -0.0116667 0
0.0133333 -0.0116667 0
0.01 -0.0116667 0
0.00666667 -0.0116667 0
0.00333333 -0.0116667 0
0 -0.0116667 0
0.1 -0.015 0
0.0966667 -0.015 0
0.0933333 -0.015 0
0.09 -0.015 0
0.0866667 -0.015 0
0.0833333 -0.015 0
0.08 -0.015 0
0.0766667 -0.015 0
0.0733333 -0.015 0
0.07 -0.015 0
0.0666667 -0.015 0
0.0633333 -0.015 0
0.06 -0.015 0
0.0566667 -0.015 0
0.0533333 -0.015 0
0.05 -0.015 0
0.0466667 -0.015 0
0.0433333 -0.015 0
0.04 -0.015 0
0.0366667 -0.015 0
0.0333333 -0.015 0
0.03 -0.015 0
0.0266667 -0.015 0
0.0233333 -0.015 0
0.02 -0.015 0
0.0166667 -0.015 0
0.0133333 -0.015 0
0.01 -0.015 0
0.00666667 -0.015 0
0.00333333 -0.015 0
0 -0.015 0
0.1 -0.0183333 0
0.0966667 -0.0183333 0
0.0933333 -0.0183333 0
0.09 -0.0183333 0
0.0866667 -0.0183333 0
0.0833333 -0.0183333 0
0.08 -0.0183333 0
0.0766667 -0.0183333 0
0.0733333 -0.0183333 0
0.07 -0.0183333 0
0.0666667 -0.0183333 0
0.0633333 -0.0183333 0
0.06 -0.0183333 0
0.0566667 -0.0183333 0
0.0533333 -0.0183333 0
0.05 -0.0183333 0
0.0466667 -0.0183333 0
0.0433333 -0.0183333 0
0.04 -0.0183333 0
0.0366667 -0.0183333 0
0.0333333 -0.0183333 0
0.03 -0.0183333 0
0.0266667 -0.0183333 0
0.0233333 -0.0183333 0
0.02 -0.0183333 0
0.0166667 -0.0183333 0
0.0133333 -0.0183333 0
0.01 -0.0183333 0
0.00666667 -0.0183333 0
0.00333333 -0.0183333 0
0 -0.0183333 0
0.1 -0.0216667 0
0.0966667 -0.0216667 0
0.0933333 -0.0216667 0
0.09 -0.0216667 0
0.0866667 -0.0216667 0
0.0833333 -0.0216667 0
0.08 -0.0216667 0
0.0766667 -0.0216667 0
0.0733333 -0.0216667 0
0.07 -0.0216667 0
0.0666667 -0.0216667 0
0.0633333 -0.0216667 0
0.06 -0.0216667 0
0.0566667 -0.0216667 0
0.0533333 -0.0216667 0
0.05 -0.0216667 0
0.0466667 -0.0216667 0
0.0433333 -0.0216667 0
0.04 -0.0216667 0
0.0366667 -0.0216667 0
0.0333333 -0.0216667 0
0.03 -0.0216667 0
0.0266667 -0.0216667 0
0.0233333 -0.0216667 0
0.02 -0.0216667 0
0.0166667 -0.0216667 0
0.0133333 -0.0216667 0
0.01 -0.0216667 0
0.00666667 -0.0216667 0
0.00333333 -0.0216667 0
0 -0.0216667 0
0.1 -0.025 0
0.0966667 -0.025 0
0.0933333 -0.025 0
0.09 -0.025 0
0.0866667 -0.025 0
0.0833333 -0.025 0
0.08 -0.025 0
0.0766667 -0.025 0
0.0733333 -0.025 0
0.07 -0.025 0
0.0666667 -0.025 0
0.0633333 -0.025 0
0.06 -0.025 0
0.0566667 -0.025 0
0.0533333 -0.025 0
0.05 -0.025 0
0.0466667 -0.025 0
0.0433333 -0.025 0
0.04 -0.025 0
0.0366667 -0.025 0
0.0333333 -0.025 0
0.03 -0.025 0
0.0266667 -0.025 0
0.0233333 -0.025 0
0.02 -0.025 0
0.0166667 -0.025 0
0.0133333 -0.025 0
0.01 -0.025 0
0.00666667 -0.025 0
0.00333333 -0.025 0
0 -0.025 0
0.1 -0.0283333 0
0.0966667 -0.0283333 0
0.0933333 -0.0283333 0
0.09 -0.0283333 0
0.0866667 -0.0283333 0
0.0833333 -0.0283333 0
0.08 -0.0283333 0
0.0766667 -0.0283333 0
0.0733333 -0.0283333 0
0.07 -0.0283333 0
0.0666667 -0.0283333 0
0.0633333 -0.0283333 0
0.06 -0.0283333 0
0.0566667 -0.0283333 0
0.0533333 -0.0283333 0
0.05 -0.0283333 0
0.0466667 -0.0283333 0
0.0433333 -0.0283333 0
0.04 -0.0283333 0
0.0366667 -0.0283333 0
0.0333333 -0.0283333 0
0.03 -0.0283333 0
0.0266667 -0.0283333 0
0.0233333 -0.0283333 0
0.02 -0.0283333 0
0.0166667 -0.0283333 0
0.0133333 -0.0283333 0
0.01 -0.0283333 0
0.00666667 -0.0283333 0
0.00333333 -0.0283333 0
0 -0.0283333 0
0.1 -0.0316667 0
0.0966667 -0.0316667 0
0.0933333 -0.0316667 0
0.09 -0.0316667 0
0.0866667 -0.0316667 0
0.0833333 -0.0316667 0
0.08 -0.0316667 0
0.0766667 -0.0316667 0
0.0733333 -0.0316667 0
0.07 -0.0316667 0
0.0666667 -0.0316667 0
0.0633333 -0.0316667 0
0.06 -0.0316667 0
0.0566667 -0.0316667 0
0.0533333 -0.0316667 0
0.05 -0.0316667 0
0.0466667 -0.0316667 0
0.0433333 -0.0316667 0
0.04 -0.0316667 0
0.0366667 -0.0316667 0
0.0333333 -0.0316667 0
0.03 -0.0316667 0
0.0266667 -0.0316667 0
0.0233333 -0.0316667 0
0.02 -0.0316667 0
0.0166667 -0.0316667 0
0.0133333 -0.0316667 0
0.01 -0.0316667 0
0.00666667 -0.0316667 0
0.00333333 -0.0316667 0
0 -0.0316667 0
0.1 -0.035 0
0.0966667 -0.035 0
0.0933333 -0.035 0
0.09 -0.035 0
0.0866667 -0.035 0
0.0833333 -0.035 0
0.08 -0.035 0
0.0766667 -0.035 0
0.0733333 -0.035 0
0.07 -0.035 0
0.0666667 -0.035 0
0.0633333 -0.035 0
0.06 -0.035 0
0.0566667 -0.035 0
0.0533333 -0.035 0
0.05 -0.035 0
0.0466667 -0.035 0
0.0433333 -0.035 0
0.04 -0.035 0
0.0366667 -0.035 0
0.0333333 -0.035 0
0.03 -0.035 0
0.0266667 -0.035 0
0.0233333 -0.035 0
0.02 -0.035 0
0.0166667 -0.035 0
0.0133333 -0.035 0
0.01 -0.035 0
0.00666667 -0.035 0
0.00333333 -0.035 0
0 -0.035 0
0.1 -0.0383333 0
0.0966667 -0.0383333 0
0.0933333 -0.0383333 0
0.09 -0.0383333 0
0.0866667 -0.0383333 0
0.0833333 -0.0383333 0
0.08 -0.0383333 0
0.0766667 -0.0383333 0
0.0733333 -0.0383333 0
0.07 -0.0383333 0
0.0666667 -0.0383333 0
0.0633333 -0.0383333 0
0.06 -0.0383333 0
0.0566667 -0.0383333 0
0.0533333 -0.0383333 0
0.05 -0.0383333 0
0.0466667 -0.0383333 0
0.0433333 -0.0383333 0
0.04 -0.0383333 0
0.0366667 -0.0383333 0
0.0333333 -0.0383333 0
0.03 -0.0383333 0
0.0266667 -0.0383333 0
0.0233333 -0.0383333 0
0.02 -0.0383333 0
0.0166667 -0.0383333 0
0.0133333 -0.0383333 0
0.01 -0.0383333 0
0.00666667 -0.0383333 0
0.00333333 -0.0383333 0
0 -0.0383333 0
0.1 -0.0416667 0
0.0966667 -0.0416667 0
0.0933333 -0.0416667 0
0.09 -0.0416667 0
0.0866667 -0.0416667 0
0.0833333 -0.0416667 0
0.08 -0.0416667 0
0.0766667 -0.0416667 0
0.0733333 -0.0416667 0
0.07 -0.0416667 0
0.0666667 -0.0416667 0
0.0633333 -0.0416667 0
0.06 -0.0416667 0
0.0566667 -0.0416667 0
0.0533333 -0.0416667 0
0.05 -0.0416667 0
0.0466667 -0.0416667 0
0.0433333 -0.0416667 0
0.04 -0.0416667 0
0.0366667 -0.0416667 0
0.0333333 -0.0416667 0
0.03 -0.0416667 0
0.0266667 -0.0416667 0
0.0233333 -0.0416667 0
0.02 -0.0416667 0
0.0166667 -0.0416667 0
0.0133333 -0.0416667 0
0.01 -0.0416667 0
0.00666667 -0.0416667 0
0.00333333 -0.0416667 0
0 -0.0416667 0
0.1 -0.045 0
0.0966667 -0.045 0
0.0933333 -0.045 0
0.09 -0.045 0
0.0866667 -0.045 0
0.0833333 -0.045 0
0.08 -0.045 0
0.0766667 -0.045 0
0.0733333 -0.045 0
0.07 -0.045 0
0.0666667 -0.045 0
0.0633333 -0.045 0
0.06 -0.045 0
0.0566667 -0.045 0
0.0533333 -0.045 0
0.05 -0.045 0
0.0466667 -0.045 0
0.0433333 -0.045 0
0.04 -0.045 0
0.0366667 -0.045 0
0.0333333 -0.045 0
0.03 -0.045 0
0.0266667 -0.045 0
0.0233333 -0.045 0
0.02 -0.045 0
0.0166667 -0.045 0
0.0133333 -0.045 0
0.01 -0.045 0
0.00666667 -0.045 0
0.00333333 -0.045 0
0 -0.045 0
0.1 -0.0483333 0
0.0966667 -0.0483333 0
0.0933333 -0.0483333 0
0.09 -0.0483333 0
0.0866667 -0.0483333 0
[...]
POINT_DATA 961
SCALARS Temp float 1
LOOKUP_TABLE default
857.714910
844.406968
831.885310
820.177534
809.309424
799.304943
790.186027
781.972716
774.682962
768.332733
762.935877
758.504152
755.047225
752.572612
751.085689
750.589689
751.085690
752.572613
755.047230
758.504159
762.935875
768.332740
774.682974
781.972722
790.186043
799.304945
809.309439
820.177539
831.885327
844.407007
857.714940
844.406988
830.581632
817.573130
805.410159
794.119500
783.726048
774.252591
765.719950
758.146772
751.549648
745.942964
741.338935
737.747604
735.176779
733.632045
733.116761
733.632045
735.176780
737.747609
741.338942
745.942962
751.549656
758.146784
765.719955
774.252607
783.726050
794.119515
805.410164
817.573147
830.581666
844.407008
831.885313
817.573117
804.106537
791.515264
779.827021
769.067579
759.260528
750.427422
742.587566
735.758134
729.954019
725.187866
721.470071
718.808719
717.209589
716.676160
717.209590
718.808720
721.470076
725.187873
729.954017
735.758142
742.587579
750.427428
759.260544
769.067581
779.827036
791.515268
804.106553
817.573147
831.885328
820.177527
805.410134
791.515253
778.523517
766.463532
755.361888
745.242926
736.128886
728.039685
720.993045
715.004332
710.086592
706.250554
703.504558
701.854568
701.304173
701.854569
703.504559
706.250559
710.086600
715.004329
720.993053
728.039698
736.128891
745.242943
755.361890
766.463546
778.523520
791.515267
805.410163
820.177539
809.309428
794.119487
779.827023
766.463546
754.058480
742.639177
732.230675
722.855849
714.535186
707.286916
701.126844
696.068390
692.122589
689.298020
687.600818
687.034674
687.600818
689.298021
692.122594
696.068398
701.126841
707.286924
714.535199
722.855854
732.230692
742.639178
754.058494
766.463547
779.827035
794.119515
809.309439
799.304939
783.726026
769.067571
755.361893
742.639168
730.927449
720.252414
710.637524
702.103793
694.669915
688.352100
683.164113
679.117271
676.220373
674.479710
673.899069
674.479711
676.220374
679.117276
683.164121
688.352097
694.669923
702.103806
710.637529
720.252431
730.927449
742.639181
755.361893
769.067583
783.726053
799.304949
790.186035
774.252581
759.260533
745.242945
732.230679
720.252428
709.334453
699.500751
690.772811
683.169755
676.708161
671.402107
667.263168
664.300343
662.520067
661.926212
662.520067
664.300344
667.263174
671.402115
676.708158
683.169763
690.772824
699.500756
709.334470
720.252428
732.230693
745.242944
759.260544
774.252607
790.186044
781.972717
765.719932
750.427420
736.128897
722.855845
710.637530
699.500742
689.469956
680.567094
672.811661
666.220567
660.808171
656.586281
653.564076
651.748120
651.142363
651.748121
653.564077
656.586287
660.808179
666.220563
672.811669
680.567108
689.469961
699.500759
710.637529
722.855857
736.128895
750.427430
765.719958
781.972725
774.682970
758.146761
742.587571
728.039704
714.535190
702.103807
690.772810
680.567103
671.508989
663.618313
656.912280
651.405501
647.109987
644.035080
642.187457
641.571136
642.187457
644.035081
647.109993
651.405509
656.912277
663.618321
671.509003
680.567108
690.772827
702.103806
714.535203
728.039702
742.587581
758.146787
774.682977
768.332733
751.549630
735.758132
720.993056
707.286912
694.669920
683.169745
672.811661
663.618303
655.609815
648.803657
643.214658
638.855009
635.734192
633.858983
633.233460
633.858983
635.734193
638.855015
643.214666
648.803653
655.609822
663.618317
672.811665
683.169762
694.669919
707.286924
720.993053
735.758141
751.549655
768.332741
762.935872
745.942940
729.954011
715.004336
701.126833
688.352099
676.708144
666.220560
656.912263
648.803650
641.912399
636.253524
631.839370
628.679534
626.780880
626.147538
626.780881
628.679536
631.839376
636.253532
641.912395
648.803657
656.912277
666.220564
676.708161
688.352098
701.126845
715.004333
729.954020
745.942965
762.935879
758.504154
741.338918
725.187865
710.086605
696.068387
683.164121
671.402099
660.808173
651.405493
643.214660
636.253534
630.537279
626.078366
622.886491
620.968586
620.328821
620.968586
622.886493
626.078372
630.537287
636.253529
643.214668
651.405507
660.808177
671.402117
683.164119
696.068400
710.086602
725.187875
741.338943
758.504161
755.047226
737.747585
721.470069
706.250566
692.122585
679.117278
667.263159
656.586282
647.109978
638.855011
631.839378
626.078365
621.584539
618.367672
616.434749
615.789974
616.434749
618.367673
621.584545
626.078374
631.839374
638.855019
647.109992
656.586286
667.263176
679.117276
692.122597
706.250562
721.470079
737.747611
755.047233
752.572611
735.176758
718.808714
703.504566
689.298012
676.220376
664.300330
653.564073
644.035067
635.734189
628.679539
622.886486
618.367668
615.132909
613.189236
612.540876
613.189237
615.132911
618.367674
622.886495
628.679535
635.734198
644.035081
653.564078
664.300348
676.220374
689.298025
703.504563
718.808723
735.176784
752.572618
751.085688
733.632023
717.209584
701.854577
687.600811
674.479714
662.520055
651.748118
642.187445
633.858981
626.780886
620.968581
616.434745
613.189237
611.239105
610.588590
611.239105
613.189238
616.434752
620.968590
626.780882
633.858989
642.187459
651.748123
662.520072
674.479713
687.600824
701.854574
717.209594
733.632050
751.085695
750.589688
733.116739
716.676155
701.304182
687.034667
673.899073
661.926200
651.142361
641.571125
633.233459
626.147543
620.328817
615.789971
612.540877
610.588590
609.937357
610.588591
612.540879
615.789978
620.328826
626.147540
633.233467
641.571139
651.142367
661.926218
673.899072
687.034681
701.304180
716.676165
733.116766
750.589696
751.085688
733.632023
717.209584
701.854577
687.600811
674.479714
662.520054
651.748118
642.187445
633.858981
626.780886
620.968581
616.434745
613.189237
611.239105
610.588590
611.239106
613.189239
616.434752
620.968590
626.780883
633.858990
642.187460
651.748124
662.520073
674.479713
687.600825
701.854575
717.209595
733.632051
751.085696
752.572610
735.176757
718.808713
703.504566
689.298012
676.220376
664.300330
653.564073
644.035067
635.734190
628.679540
622.886487
618.367668
615.132910
613.189237
612.540877
613.189238
615.132912
618.367675
622.886496
628.679537
635.734199
644.035083
653.564079
664.300349
676.220376
689.298027
703.504565
718.808725
735.176785
752.572619
755.047226
737.747585
721.470069
706.250565
692.122584
679.117278
667.263159
656.586282
647.109979
638.855011
631.839379
626.078366
621.584540
618.367672
616.434750
615.789975
616.434750
618.367674
621.584547
626.078375
631.839376
638.855021
647.109994
656.586288
667.263178
679.117278
692.122600
706.250565
721.470081
737.747613
755.047235
758.504154
741.338917
725.187865
710.086605
696.068387
683.164121
671.402099
660.808173
651.405494
643.214661
636.253534
630.537280
626.078367
622.886493
620.968587
620.328822
620.968588
622.886495
626.078375
630.537290
636.253532
643.214671
651.405510
660.808180
671.402120
683.164123
696.068403
710.086605
725.187878
741.338947
758.504164
762.935874
745.942942
729.954013
715.004339
701.126836
688.352102
676.708148
666.220563
656.912267
648.803654
641.912403
636.253529
631.839374
628.679540
626.780886
626.147543
626.780887
628.679542
631.839382
636.253539
641.912401
648.803664
656.912284
666.220571
676.708169
688.352105
701.126853
715.004341
729.954027
745.942972
762.935886
768.332729
751.549625
735.758127
720.993051
707.286907
694.669916
683.169741
672.811657
663.618300
655.609811
648.803654
643.214655
638.855007
635.734189
633.858980
633.233458
633.858981
635.734192
638.855014
643.214665
648.803652
655.609822
663.618317
672.811666
683.169763
694.669920
707.286925
720.993055
735.758143
751.549657
768.332742
774.682972
758.146764
742.587574
728.039707
714.535194
702.103811
690.772814
680.567108
671.508994
663.618319
656.912286
651.405507
647.109994
644.035087
642.187464
641.571144
642.187465
644.035089
647.110002
651.405518
656.912286
663.618330
671.509012
680.567118
690.772837
702.103816
714.535213
728.039712
742.587592
758.146797
774.682987
781.972711
765.719926
750.427414
736.128890
722.855839
710.637524
699.500736
689.469951
680.567089
672.811656
666.220563
660.808167
656.586277
653.564073
651.748117
651.142361
651.748119
653.564075
656.586285
660.808178
666.220563
672.811669
680.567108
689.469962
699.500760
710.637531
722.855860
736.128897
750.427433
765.719961
781.972728
790.186040
774.252587
759.260539
745.242951
732.230686
720.252436
709.334462
699.500760
690.772820
683.169765
676.708172
671.402119
667.263180
664.300355
662.520080
661.926225
662.520081
664.300358
667.263188
671.402130
676.708173
683.169778
690.772840
699.500771
709.334486
720.252444
732.230709
745.242960
759.260561
774.252624
790.186059
799.304936
783.726023
769.067568
755.361890
742.639166
730.927447
720.252413
710.637524
702.103793
694.669916
688.352102
683.164115
679.117273
676.220375
674.479713
673.899073
674.479715
676.220378
679.117281
683.164126
688.352103
694.669929
702.103813
710.637537
720.252438
730.927457
742.639190
755.361902
769.067593
783.726063
799.304958
809.309416
794.119474
779.827010
766.463533
754.058468
742.639166
732.230664
722.855838
714.535176
707.286907
701.126835
696.068381
692.122580
689.298011
687.600810
687.034667
687.600812
689.298015
692.122588
696.068393
701.126837
707.286920
714.535196
722.855852
732.230690
742.639178
754.058494
766.463548
779.827037
794.119517
809.309442
820.177524
805.410132
791.515252
778.523517
766.463533
755.361890
745.242929
736.128890
728.039689
720.993050
715.004338
710.086599
706.250561
703.504565
701.854576
701.304182
701.854578
703.504568
706.250569
710.086610
715.004340
720.993064
728.039710
736.128904
745.242956
755.361903
766.463561
778.523535
791.515284
805.410180
820.177556
831.885298
817.573101
804.106523
791.515251
779.827009
769.067568
759.260517
750.427413
742.587557
735.758126
729.954012
725.187859
721.470064
718.808712
717.209583
716.676154
717.209585
718.808715
721.470072
725.187870
729.954014
735.758140
742.587577
750.427427
759.260545
769.067582
779.827039
791.515273
804.106560
817.573156
831.885338
844.406985
830.581630
817.573131
805.410163
794.119506
783.726056
774.252600
765.719960
758.146783
751.549660
745.942977
741.338949
737.747618
735.176794
733.632060
733.116776
733.632062
735.176797
737.747626
741.338960
745.942980
751.549674
758.146803
765.719975
774.252628
783.726071
794.119537
805.410187
817.573173
830.581694
844.407041
857.714886
844.406949
831.885298
820.177525
809.309417
799.304937
790.186022
781.972712
774.682958
768.332730
762.935875
758.504150
755.047224
752.572612
751.085689
750.589689
751.085690
752.572615
755.047231
758.504161
762.935878
768.332743
774.682978
781.972727
790.186048
799.304952
809.309447
820.177549
831.885340
844.407024
857.714968
