# vtk DataFile Version 2.0
Unstructured Grid Example
ASCII
DATASET UNSTRUCTURED_GRID

POINTS 961 float
0.1 0.005 0
0.0966667 0.005 0
0.0933333 0.005 0
0.09 0.005 0
0.0866667 0.005 0
0.0833333 0.005 0
0.08 0.005 0
0.0766667 0.005 0
0.0733333 0.005 0
0.07 0.005 0
0.0666667 0.005 0
0.0633333 0.005 0
0.06 0.005 0
0.0566667 0.005 0
0.0533333 0.005 0
0.05 0.005 0
0.0466667 0.005 0
0.0433333 0.005 0
0.04 0.005 0
0.0366667 0.005 0
0.0333333 0.005 0
0.03 0.005 0
0.0266667 0.005 0
0.0233333 0.005 0
0.02 0.005 0
0.0166667 0.005 0
0.0133333 0.005 0
0.01 0.005 0
0.00666667 0.005 0
0.00333333 0.005 0
0 0.005 0
0.1 0.00166667 0
0.0966667 0.00166667 0
0.0933333 0.00166667 0
0.09 0.00166667 0
0.0866667 0.00166667 0
0.0833333 0.00166667 0
0.08 0.00166667 0
0.0766667 0.00166667 0
0.0733333 0.00166667 0
0.07 0.00166667 0
0.0666667 0.00166667 0
0.0633333 0.00166667 0
0.06 0.00166667 0
0.0566667 0.00166667 0
0.0533333 0.00166667 0
0.05 0.00166667 0
0.0466667 0.00166667 0
0.0433333 0.00166667 0
0.04 0.00166667 0
0.0366667 0.00166667 0
0.0333333 0.00166667 0
0.03 0.00166667 0
0.0266667 0.00166667 0
0.0233333 0.00166667 0
0.02 0.00166667 0
0.0166667 0.00166667 0
0.0133333 0.00166667 0
0.01 0.00166667 0
0.00666667 0.00166667 0
0.00333333 0.00166667 0
0 0.00166667 0
0.1 -0.00166667 0
0.0966667 -0.00166667 0
0.0933333 -0.00166667 0
0.09 -0.00166667 0
0.0866667 -0.00166667 0
0.0833333 -0.00166667 0
0.08 -0.00166667 0
0.0766667 -0.00166667 0
0.0733333 -0.00166667 0
0.07 -0.00166667 0
0.0666667 -0.00166667 0
0.0633333 -0.00166667 0
0.06 -0.00166667 0
0.0566667 -0.00166667 0
0.0533333 -0.00166667 0
0.05 -0.00166667 0
0.0466667 -0.00166667 0
0.0433333 -0.00166667 0
0.04 -0.00166667 0
0.0366667 -0.00166667 0
0.0333333 -0.00166667 0
0.03 -0.00166667 0
0.0266667 -0.00166667 0
0.0233333 -0.00166667 0
0.02 -0.00166667 0
0.0166667 -0.00166667 0
0.0133333 -0.00166667 0
0.01 -0.00166667 0
0.00666667 -0.00166667 0
0.00333333 -0.00166667 0
0 -0.00166667 0
0.1 -0.005 0
0.0966667 -0.005 0
0.0933333 -0.005 0
0.09 -0.005 0
0.0866667 -0.005 0
0.0833333 -0.005 0
0.08 -0.005 0
0.0766667 -0.005 0
0.0733333 -0.005 0
0.07 -0.005 0
0.0666667 -0.005 0
0.0633333 -0.005 0
0.06 -0.005 0
0.0566667 -0.005 0
0.0533333 -0.005 0
0.05 -0.005 0
0.0466667 -0.005 0
0.0433333 -0.005 0
0.04 -0.005 0
0.0366667 -0.005 0
0.0333333 -0.005 0
0.03 -0.005 0
0.0266667 -0.005 0
0.0233333 -0.005 0
0.02 -0.005 0
0.0166667 -0.005 0
0.0133333 -0.005 0
0.01 -0.005 0
0.00666667 -0.005 0
0.00333333 -0.005 0
0 -0.005 0
0.1 -0.00833333 0
0.0966667 -0.00833333 0
0.0933333 -0.00833333 0
0.09 -0.00833333 0
0.0866667 -0.00833333 0
0.0833333 -0.00833333 0
0.08 -0.00833333 0
0.0766667 -0.00833333 0
0.0733333 -0.00833333 0
0.07 -0.00833333 0
0.0666667 -0.00833333 0
0.0633333 -0.00833333 0
0.06 -0.00833333 0
0.0566667 -0.00833333 0
0.0533333 -0.00833333 0
0.05 -0.00833333 0
0.0466667 -0.00833333 0
0.0433333 -0.00833333 0
0.04 -0.00833333 0
0.0366667 -0.00833333 0
0.0333333 -0.00833333 0
0.03 -0.00833333 0
0.0266667 -0.00833333 0
0.0233333 -0.00833333 0
0.02 -0.00833333 0
0.0166667 -0.00833333 0
0.0133333 -0.00833333 0
0.01 -0.00833333 0
0.00666667 -0.00833333 0
0.00333333 -0.00833333 0
0 -0.00833333 0
0.1 -0.0116667 0
0.0966667 -0.0116667 0
0.0933333 -0.0116667 0
0.09 -0.0116667 0
0.0866667 -0.0116667 0
0.0833333 -0.0116667 0
0.08 -0.0116667 0
0.0766667 -0.0116667 0
0.0733333 -0.0116667 0
0.07 -0.0116667 0
0.0666667 -0.0116667 0
0.0633333 -0.0116667 0
0.06 -0.0116667 0
0.0566667 -0.0116667 0
0.0533333 -0.0116667 0
0.05 -0.0116667 0
0.0466667 -0.0116667 0
0.0433333 -0.0116667 0
0.04 -0.0116667 0
0.0366667 -0.0116667 0
0.0333333 -0.0116667 0
0.03 -0.0116667 0
0.0266667 -0.0116667 0
0.0233333 -0.0116667 0
0.02 -0.0116667 0
0.0166667 -0.0116667 0
0.0133333 -0.0116667 0
0.01 -0.0116667 0
0.00666667 -0.0116667 0
0.00333333 -0.0116667 0
0 -0.0116667 0
0.1 -0.015 0
0.0966667 -0.015 0
0.0933333 -0.015 0
0.09 -0.015 0
0.0866667 -0.015 0
0.0833333 -0.015 0
0.08 -0.015 0
0.0766667 -0.015 0
0.0733333 -0.015 0
0.07 -0.015 0
0.0666667 -0.015 0
0.0633333 -0.015 0
0.06 -0.015 0
0.0566667 -0.015 0
0.0533333 -0.015 0
0.05 -0.015 0
0.0466667 -0.015 0
0.0433333 -0.015 0
0.04 -0.015 0
0.0366667 -0.015 0
0.0333333 -0.015 0
0.03 -0.015 0
0.0266667 -0.015 0
0.0233333 -0.015 0
0.02 -0.015 0
0.0166667 -0.015 0
0.0133333 -0.015 0
0.01 -0.015 0
0.00666667 -0.015 0
0.00333333 -0.015 0
0 -0.015 0
0.1 -0.0183333 0
0.0966667 -0.0183333 0
0.0933333 -0.0183333 0
0.09 -0.0183333 0
0.0866667 -0.0183333 0
0.0833333 -0.0183333 0
0.08 -0.0183333 0
0.0766667 -0.0183333 0
0.0733333 -0.0183333 0
0.07 -0.0183333 0
0.0666667 -0.0183333 0
0.0633333 -0.0183333 0
0.06 -0.0183333 0
0.0566667 -0.0183333 0
0.0533333 -0.0183333 0
0.05 -0.0183333 0
0.0466667 -0.0183333 0
0.0433333 -0.0183333 0
0.04 -0.0183333 0
0.0366667 -0.0183333 0
0.0333333 -0.0183333 0
0.03 -0.0183333 0
0.0266667 -0.0183333 0
0.0233333 -0.0183333 0
0.02 -0.0183333 0
0.0166667 -0.0183333 0
0.0133333 -0.0183333 0
0.01 -0.0183333 0
0.00666667 -0.0183333 0
0.00333333 -0.0183333 0
0 -0.0183333 0
0.1 -0.0216667 0
0.0966667 -0.0216667 0
0.0933333 -0.0216667 0
0.09 -0.0216667 0
0.0866667 -0.0216667 0
0.0833333 -0.0216667 0
0.08 -0.0216667 0
0.0766667 -0.0216667 0
0.0733333 -0.0216667 0
0.07 -0.0216667 0
0.0666667 -0.0216667 0
0.0633333 -0.0216667 0
0.06 -0.0216667 0
0.0566667 -0.0216667 0
0.0533333 -0.0216667 0
0.05 -0.0216667 0
0.0466667 -0.0216667 0
0.0433333 -0.0216667 0
0.04 -0.0216667 0
0.0366667 -0.0216667 0
0.0333333 -0.0216667 0
0.03 -0.0216667 0
0.0266667 -0.0216667 0
0.0233333 -0.0216667 0
0.02 -0.0216667 0
0.0166667 -0.0216667 0
0.0133333 -0.0216667 0
0.01 -0.0216667 0
0.00666667 -0.0216667 0
0.00333333 -0.0216667 0
0 -0.0216667 0
0.1 -0.025 0
0.0966667 -0.025 0
0.0933333 -0.025 0
0.09 -0.025 0
0.0866667 -0.025 0
0.0833333 -0.025 0
0.08 -0.025 0
0.0766667 -0.025 0
0.0733333 -0.025 0
0.07 -0.025 0
0.0666667 -0.025 0
0.0633333 -0.025 0
0.06 -0.025 0
0.0566667 -0.025 0
0.0533333 -0.025 0
0.05 -0.025 0
0.0466667 -0.025 0
0.0433333 -0.025 0
0.04 -0.025 0
0.0366667 -0.025 0
0.0333333 -0.025 0
0.03 -0.025 0
0.0266667 -0.025 0
0.0233333 -0.025 0
0.02 -0.025 0
0.0166667 -0.025 0
0.0133333 -0.025 0
0.01 -0.025 0
0.00666667 -0.025 0
0.00333333 -0.025 0
0 -0.025 0
0.1 -0.0283333 0
0.0966667 -0.0283333 0
0.0933333 -0.0283333 0
0.09 -0.0283333 0
0.0866667 -0.0283333 0
0.0833333 -0.0283333 0
0.08 -0.0283333 0
0.0766667 -0.0283333 0
0.0733333 -0.0283333 0
0.07 -0.0283333 0
0.0666667 -0.0283333 0
0.0633333 -0.0283333 0
0.06 -0.0283333 0
0.0566667 -0.0283333 0
0.0533333 -0.0283333 0
0.05 -0.0283333 0
0.0466667 -0.0283333 0
0.0433333 -0.0283333 0
0.04 -0.0283333 0
0.0366667 -0.0283333 0
0.0333333 -0.0283333 0
0.03 -0.0283333 0
0.0266667 -0.0283333 0
0.0233333 -0.0283333 0
0.02 -0.0283333 0
0.0166667 -0.0283333 0
0.0133333 -0.0283333 0
0.01 -0.0283333 0
0.00666667 -0.0283333 0
0.00333333 -0.0283333 0
0 -0.0283333 0
0.1 -0.0316667 0
0.0966667 -0.0316667 0
0.0933333 -0.0316667 0
0.09 -0.0316667 0
0.0866667 -0.0316667 0
0.0833333 -0.0316667 0
0.08 -0.0316667 0
0.0766667 -0.0316667 0
0.0733333 -0.0316667 0
0.07 -0.0316667 0
0.0666667 -0.0316667 0
0.0633333 -0.0316667 0
0.06 -0.0316667 0
0.0566667 -0.0316667 0
0.0533333 -0.0316667 0
0.05 -0.0316667 0
0.0466667 -0.0316667 0
0.0433333 -0.0316667 0
0.04 -0.0316667 0
0.0366667 -0.0316667 0
0.0333333 -0.0316667 0
0.03 -0.0316667 0
0.0266667 -0.0316667 0
0.0233333 -0.0316667 0
0.02 -0.0316667 0
0.0166667 -0.0316667 0
0.0133333 -0.0316667 0
0.01 -0.0316667 0
0.00666667 -0.0316667 0
0.00333333 -0.0316667 0
0 -0.0316667 0
0.1 -0.035 0
0.0966667 -0.035 0
0.0933333 -0.035 0
0.09 -0.035 0
0.0866667 -0.035 0
0.0833333 -0.035 0
0.08 -0.035 0
0.0766667 -0.035 0
0.0733333 -0.035 0
0.07 -0.035 0
0.0666667 -0.035 0
0.0633333 -0.035 0
0.06 -0.035 0
0.0566667 -0.035 0
0.0533333 -0.035 0
0.05 -0.035 0
0.0466667 -0.035 0
0.0433333 -0.035 0
0.04 -0.035 0
0.0366667 -0.035 0
0.0333333 -0.035 0
0.03 -0.035 0
0.0266667 -0.035 0
0.0233333 -0.035 0
0.02 -0.035 0
0.0166667 -0.035 0
0.0133333 -0.035 0
0.01 -0.035 0
0.00666667 -0.035 0
0.00333333 -0.035 0
0 -0.035 0
0.1 -0.0383333 0
0.0966667 -0.0383333 0
0.0933333 -0.0383333 0
0.09 -0.0383333 0
0.0866667 -0.0383333 0
0.0833333 -0.0383333 0
0.08 -0.0383333 0
0.0766667 -0.0383333 0
0.0733333 -0.0383333 0
0.07 -0.0383333 0
0.0666667 -0.0383333 0
0.0633333 -0.0383333 0
0.06 -0.0383333 0
0.0566667 -0.0383333 0
0.0533333 -0.0383333 0
0.05 -0.0383333 0
0.0466667 -0.0383333 0
0.0433333 -0.0383333 0
0.04 -0.0383333 0
0.0366667 -0.0383333 0
0.0333333 -0.0383333 0
0.03 -0.0383333 0
0.0266667 -0.0383333 0
0.0233333 -0.0383333 0
0.02 -0.0383333 0
0.0166667 -0.0383333 0
0.0133333 -0.0383333 0
0.01 -0.0383333 0
0.00666667 -0.0383333 0
0.00333333 -0.0383333 0
0 -0.0383333 0
0.1 -0.0416667 0
0.0966667 -0.0416667 0
0.0933333 -0.0416667 0
0.09 -0.0416667 0
0.0866667 -0.0416667 0
0.0833333 -0.0416667 0
0.08 -0.0416667 0
0.0766667 -0.0416667 0
0.0733333 -0.0416667 0
0.07 -0.0416667 0
0.0666667 -0.0416667 0
0.0633333 -0.0416667 0
0.06 -0.0416667 0
0.0566667 -0.0416667 0
0.0533333 -0.0416667 0
0.05 -0.0416667 0
0.0466667 -0.0416667 0
0.0433333 -0.0416667 0
0.04 -0.0416667 0
0.0366667 -0.0416667 0
0.0333333 -0.0416667 0
0.03 -0.0416667 0
0.0266667 -0.0416667 0
0.0233333 -0.0416667 0
0.02 -0.0416667 0
0.0166667 -0.0416667 0
0.0133333 -0.0416667 0
0.01 -0.0416667 0
0.00666667 -0.0416667 0
0.00333333 -0.0416667 0
0 -0.0416667 0
0.1 -0.045 0
0.0966667 -0.045 0
0.0933333 -0.045 0
0.09 -0.045 0
0.0866667 -0.045 0
0.0833333 -0.045 0
0.08 -0.045 0
0.0766667 -0.045 0
0.0733333 -0.045 0
0.07 -0.045 0
0.0666667 -0.045 0
0.0633333 -0.045 0
0.06 -0.045 0
0.0566667 -0.045 0
0.0533333 -0.045 0
0.05 -0.045 0
0.0466667 -0.045 0
0.0433333 -0.045 0
0.04 -0.045 0
0.0366667 -0.045 0
0.0333333 -0.045 0
0.03 -0.045 0
0.0266667 -0.045 0
0.0233333 -0.045 0
0.02 -0.045 0
0.0166667 -0.045 0
0.0133333 -0.045 0
0.01 -0.045 0
0.00666667 -0.045 0
0.00333333 -0.045 0
0 -0.045 0
0.1 -0.0483333 0
0.0966667 -0.0483333 0
0.0933333 -0.0483333 0
0.09 -0.0483333 0
0.0866667 -0.0483333 0
[...]
POINT_DATA 961
SCALARS Temp float 1
LOOKUP_TABLE default
359.323460
328.721320
304.089361
284.995711
270.708164
260.356306
253.070763
248.074903
244.727956
242.532471
241.120501
240.230783
239.684625
239.364716
239.198634
239.147365
239.198634
239.364716
239.684626
240.230784
241.120500
242.532472
244.727960
248.074904
253.070772
260.356305
270.708177
284.995711
304.089384
328.721390
359.323515
328.721365
297.004455
271.473642
251.681788
236.870573
226.138379
218.584507
213.404207
209.933411
207.656507
206.192065
205.269221
204.702693
204.370835
204.198542
204.145355
204.198542
204.370835
204.702693
205.269222
206.192064
207.656508
209.933415
213.404208
218.584516
226.138377
236.870585
251.681787
271.473664
297.004512
328.721393
304.089368
271.473615
245.214924
224.854731
209.614804
198.569374
190.793181
185.459165
181.884563
179.539048
178.030165
177.079132
176.495198
176.153094
175.975462
175.920623
175.975462
176.153094
176.495199
177.079133
178.030164
179.539049
181.884567
185.459166
190.793189
198.569371
209.614815
224.854728
245.214940
271.473663
304.089385
284.995700
251.681741
224.854714
204.047970
188.468843
177.173758
169.219059
163.760721
160.101575
157.699805
156.154257
155.179833
154.581380
154.230692
154.048573
153.992344
154.048573
154.230692
154.581381
155.179834
156.154256
157.699807
160.101579
163.760722
169.219067
177.173755
188.468853
204.047964
224.854726
251.681785
284.995711
270.708170
236.870543
209.614804
188.468861
172.630054
161.142246
153.048572
147.492629
143.766562
141.319917
139.744903
138.751554
138.141282
137.783571
137.597767
137.540394
137.597767
137.783571
138.141283
138.751555
139.744902
141.319918
143.766566
147.492629
153.048581
161.142242
172.630063
188.468853
209.614814
236.870583
270.708177
260.356303
226.138339
198.569365
177.173768
161.142237
149.510113
141.311405
135.681006
131.903426
129.421934
127.823850
126.815568
126.195908
125.832585
125.643823
125.585530
125.643823
125.832585
126.195908
126.815569
127.823848
129.421935
131.903430
135.681006
141.311413
149.510108
161.142245
177.173758
198.569372
226.138378
260.356308
253.070769
218.584476
190.793182
169.219078
153.048573
141.311416
133.035521
127.349868
123.533686
121.025832
119.410138
118.390362
117.763420
117.395717
117.204636
117.145620
117.204636
117.395717
117.763421
118.390363
119.410137
121.025833
123.533689
127.349868
133.035529
141.311410
153.048580
169.219067
190.793188
218.584513
253.070772
248.074904
213.404171
185.459160
163.760735
147.492624
135.681011
127.349862
121.624253
117.779874
115.252574
113.623765
112.595352
111.962893
111.591849
111.398991
111.339418
111.398991
111.591849
111.962894
112.595353
113.623763
115.252575
117.779878
121.624253
127.349869
135.681005
147.492630
163.760723
185.459165
213.404207
248.074905
244.727960
209.933378
181.884562
160.101592
143.766560
131.903434
123.533683
117.779878
113.915395
111.374089
109.735741
108.700987
108.064445
107.690910
107.496719
107.436729
107.496719
107.690910
108.064445
108.700988
109.735739
111.374090
113.915398
117.779877
123.533690
131.903428
143.766566
160.101579
181.884566
209.933414
244.727960
242.532471
207.656470
179.539043
157.699819
141.319911
129.421938
121.025826
115.252574
111.374085
108.822922
107.177794
106.138491
105.498993
105.123643
104.928476
104.868179
104.928476
105.123643
105.498994
106.138492
107.177792
108.822923
111.374089
115.252573
121.025833
129.421932
141.319917
157.699806
179.539047
207.656506
242.532472
241.120500
206.192027
178.030159
156.154269
139.744896
127.823853
119.410130
113.623763
109.735736
107.177792
105.527955
104.485463
103.843876
103.467233
103.271367
103.210849
103.271367
103.467233
103.843877
104.485464
105.527953
107.177793
109.735739
113.623763
119.410137
127.823846
139.744902
156.154256
178.030163
206.192062
241.120500
240.230784
205.269184
177.079128
155.179847
138.751548
126.815573
118.390356
112.595352
108.700984
106.138491
104.485465
103.440794
102.797768
102.420229
102.223876
102.163204
102.223876
102.420229
102.797769
103.440795
104.485463
106.138492
108.700987
112.595351
118.390363
126.815566
138.751554
155.179834
177.079131
205.269219
240.230784
239.684626
204.702656
176.495193
154.581394
138.141277
126.195912
117.763414
111.962893
108.064441
105.498994
103.843878
102.797768
102.153785
101.775646
101.578965
101.518188
101.578965
101.775646
102.153786
102.797769
103.843876
105.498994
108.064444
111.962892
117.763420
126.195905
138.141283
154.581380
176.495197
204.702691
239.684626
239.364716
204.370798
176.153088
154.230706
137.783566
125.832589
117.395710
111.591849
107.690906
105.123643
103.467235
102.420228
101.775645
101.397127
101.200239
101.139396
101.200239
101.397127
101.775646
102.420229
103.467233
105.123644
107.690909
111.591848
117.395717
125.832582
137.783571
154.230692
176.153092
204.370833
239.364716
239.198634
204.198505
175.975456
154.048586
137.597761
125.643827
117.204630
111.398990
107.496716
104.928476
103.271369
102.223875
101.578964
101.200239
101.003236
100.942358
101.003236
101.200239
101.578965
102.223876
103.271367
104.928477
107.496719
111.398990
117.204636
125.643821
137.597767
154.048573
175.975460
204.198540
239.198634
239.147365
204.145318
175.920618
153.992358
137.540389
125.585535
117.145613
111.339418
107.436725
104.868179
103.210851
102.163203
101.518188
101.139397
100.942358
100.881468
100.942358
101.139397
101.518189
102.163204
103.210849
104.868179
107.436728
111.339417
117.145620
125.585528
137.540394
153.992344
175.920622
204.145353
239.147365
239.198634
204.198505
175.975456
154.048586
137.597761
125.643827
117.204630
111.398990
107.496716
104.928476
103.271369
102.223875
101.578964
101.200239
101.003236
100.942358
101.003236
101.200239
101.578965
102.223876
103.271367
104.928477
107.496719
111.398990
117.204636
125.643821
137.597767
154.048573
175.975460
204.198540
239.198634
239.364716
204.370798
176.153088
154.230706
137.783566
125.832589
117.395710
111.591849
107.690906
105.123643
103.467235
102.420228
101.775645
101.397127
101.200239
101.139397
101.200239
101.397127
101.775646
102.420229
103.467233
105.123644
107.690909
111.591848
117.395717
125.832582
137.783571
154.230692
176.153092
204.370833
239.364717
239.684626
204.702656
176.495193
154.581394
138.141277
126.195912
117.763414
111.962893
108.064441
105.498994
103.843878
102.797768
102.153785
101.775646
101.578965
101.518189
101.578965
101.775646
102.153786
102.797769
103.843876
105.498995
108.064445
111.962892
117.763421
126.195906
138.141283
154.581381
176.495197
204.702691
239.684626
240.230784
205.269184
177.079128
155.179847
138.751549
126.815573
118.390356
112.595352
108.700984
106.138491
104.485465
103.440794
102.797769
102.420229
102.223876
102.163204
102.223876
102.420229
102.797769
103.440795
104.485463
106.138492
108.700987
112.595352
118.390363
126.815566
138.751555
155.179834
177.079132
205.269220
240.230784
241.120500
206.192028
178.030160
156.154270
139.744897
127.823854
119.410131
113.623764
109.735737
107.177793
105.527956
104.485464
103.843877
103.467235
103.271369
103.210850
103.271369
103.467235
103.843878
104.485465
105.527954
107.177794
109.735740
113.623764
119.410139
127.823847
139.744903
156.154257
178.030164
206.192064
241.120501
242.532471
207.656469
179.539042
157.699818
141.319910
129.421937
121.025825
115.252573
111.374085
108.822921
107.177793
106.138490
105.498993
105.123643
104.928476
104.868178
104.928476
105.123643
105.498993
106.138491
107.177792
108.822922
111.374088
115.252573
121.025832
129.421931
141.319917
157.699806
179.539047
207.656506
242.532472
244.727961
209.933380
181.884564
160.101594
143.766562
131.903436
123.533685
117.779880
113.915398
111.374092
109.735743
108.700990
108.064447
107.690913
107.496722
107.436732
107.496722
107.690913
108.064448
108.700991
109.735742
111.374093
113.915401
117.779880
123.533693
131.903431
143.766570
160.101583
181.884570
209.933417
244.727964
248.074901
213.404169
185.459158
163.760733
147.492622
135.681009
127.349860
121.624252
117.779873
115.252573
113.623764
112.595350
111.962892
111.591848
111.398990
111.339417
111.398990
111.591848
111.962892
112.595352
113.623762
115.252574
117.779877
121.624252
127.349868
135.681005
147.492630
163.760723
185.459165
213.404208
248.074906
253.070774
218.584481
190.793187
169.219084
153.048580
141.311422
133.035528
127.349875
123.533693
121.025840
119.410146
118.390370
117.763428
117.395725
117.204644
117.145628
117.204644
117.395725
117.763429
118.390371
119.410145
121.025841
123.533697
127.349876
133.035537
141.311419
153.048590
169.219077
190.793198
218.584523
253.070781
260.356302
226.138338
198.569364
177.173768
161.142237
149.510114
141.311406
135.681008
131.903428
129.421936
127.823852
126.815571
126.195910
125.832588
125.643826
125.585533
125.643826
125.832588
126.195911
126.815572
127.823851
129.421938
131.903433
135.681010
141.311417
149.510112
161.142250
177.173764
198.569379
226.138384
260.356314
270.708158
236.870530
209.614792
188.468850
172.630043
161.142237
153.048563
147.492620
143.766554
141.319909
139.744895
138.751546
138.141275
137.783564
137.597759
137.540386
137.597759
137.783564
138.141275
138.751547
139.744894
141.319911
143.766559
147.492623
153.048575
161.142237
172.630059
188.468850
209.614813
236.870583
270.708177
284.995701
251.681742
224.854716
204.047974
188.468849
177.173766
169.219067
163.760730
160.101585
157.699816
156.154267
155.179843
154.581391
154.230703
154.048584
153.992355
154.048584
154.230703
154.581391
155.179845
156.154267
157.699818
160.101590
163.760734
169.219080
177.173769
188.468868
204.047980
224.854745
251.681805
284.995732
304.089346
271.473593
245.214904
224.854715
209.614790
198.569362
190.793170
185.459154
181.884554
179.539039
178.030156
177.079123
176.495189
176.153085
175.975453
175.920614
175.975453
176.153085
176.495190
177.079125
178.030155
179.539041
181.884559
185.459158
190.793183
198.569366
209.614812
224.854728
245.214944
271.473672
304.089396
328.721366
297.004460
271.473654
251.681806
236.870595
226.138404
218.584533
213.404235
209.933440
207.656536
206.192094
205.269250
204.702722
204.370864
204.198571
204.145384
204.198571
204.370864
204.702722
205.269251
206.192094
207.656538
209.933445
213.404239
218.584547
226.138410
236.870619
251.681824
271.473707
297.004564
328.721456
359.323414
328.721286
304.089345
284.995701
270.708158
260.356303
253.070761
248.074901
244.727955
242.532470
241.120500
240.230783
239.684625
239.364716
239.198634
239.147365
239.198634
239.364716
239.684626
240.230784
241.120500
242.532473
244.727961
248.074905
253.070774
260.356309
270.708183
284.995721
304.089400
328.721418
359.323568
