# vtk DataFile Version 2.0
Unstructured Grid Example
ASCII
DATASET UNSTRUCTURED_GRID

POINTS 961 float
0.1 0.005 0
0.0966667 0.005 0
0.0933333 0.005 0
0.09 0.005 0
0.0866667 0.005 0
0.0833333 0.005 0
0.08 0.005 0
0.0766667 0.005 0
0.0733333 0.005 0
0.07 0.005 0
0.0666667 0.005 0
0.0633333 0.005 0
0.06 0.005 0
0.0566667 0.005 0
0.0533333 0.005 0
0.05 0.005 0
0.0466667 0.005 0
0.0433333 0.005 0
0.04 0.005 0
0.0366667 0.005 0
0.0333333 0.005 0
0.03 0.005 0
0.0266667 0.005 0
0.0233333 0.005 0
0.02 0.005 0
0.0166667 0.005 0
0.0133333 0.005 0
0.01 0.005 0
0.00666667 0.005 0
0.00333333 0.005 0
0 0.005 0
0.1 0.00166667 0
0.0966667 0.00166667 0
0.0933333 0.00166667 0
0.09 0.00166667 0
0.0866667 0.00166667 0
0.0833333 0.00166667 0
0.08 0.00166667 0
0.0766667 0.00166667 0
0.0733333 0.00166667 0
0.07 0.00166667 0
0.0666667 0.00166667 0
0.0633333 0.00166667 0
0.06 0.00166667 0
0.0566667 0.00166667 0
0.0533333 0.00166667 0
0.05 0.00166667 0
0.0466667 0.00166667 0
0.0433333 0.00166667 0
0.04 0.00166667 0
0.0366667 0.00166667 0
0.0333333 0.00166667 0
0.03 0.00166667 0
0.0266667 0.00166667 0
0.0233333 0.00166667 0
0.02 0.00166667 0
0.0166667 0.00166667 0
0.0133333 0.00166667 0
0.01 0.00166667 0
0.00666667 0.00166667 0
0.00333333 0.00166667 0
0 0.00166667 0
0.1 -0.00166667 0
0.0966667 -0.00166667 0
0.0933333 -0.00166667 0
0.09 -0.00166667 0
0.0866667 -0.00166667 0
0.0833333 -0.00166667 0
0.08 -0.00166667 0
0.0766667 -0.00166667 0
0.0733333 -0.00166667 0
0.07 -0.00166667 0
0.0666667 -0.00166667 0
0.0633333 -0.00166667 0
0.06 -0.00166667 0
0.0566667 -0.00166667 0
0.0533333 -0.00166667 0
0.05 -0.00166667 0
0.0466667 -0.00166667 0
0.0433333 -0.00166667 0
0.04 -0.00166667 0
0.0366667 -0.00166667 0
0.0333333 -0.00166667 0
0.03 -0.00166667 0
0.0266667 -0.00166667 0
0.0233333 -0.00166667 0
0.02 -0.00166667 0
0.0166667 -0.00166667 0
0.0133333 -0.00166667 0
0.01 -0.00166667 0
0.00666667 -0.00166667 0
0.00333333 -0.00166667 0
0 -0.00166667 0
0.1 -0.005 0
0.0966667 -0.005 0
0.0933333 -0.005 0
0.09 -0.005 0
0.0866667 -0.005 0
0.0833333 -0.005 0
0.08 -0.005 0
0.0766667 -0.005 0
0.0733333 -0.005 0
0.07 -0.005 0
0.0666667 -0.005 0
0.0633333 -0.005 0
0.06 -0.005 0
0.0566667 -0.005 0
0.0533333 -0.005 0
0.05 -0.005 0
0.0466667 -0.005 0
0.0433333 -0.005 0
0.04 -0.005 0
0.0366667 -0.005 0
0.0333333 -0.005 0
0.03 -0.005 0
0.0266667 -0.005 0
0.0233333 -0.005 0
0.02 -0.005 0
0.0166667 -0.005 0
0.0133333 -0.005 0
0.01 -0.005 0
0.00666667 -0.005 0
0.00333333 -0.005 0
0 -0.005 0
0.1 -0.00833333 0
0.0966667 -0.00833333 0
0.0933333 -0.00833333 0
0.09 -0.00833333 0
0.0866667 -0.00833333 0
0.0833333 -0.00833333 0
0.08 -0.00833333 0
0.0766667 -0.00833333 0
0.0733333 -0.00833333 0
0.07 -0.00833333 0
0.0666667 -0.00833333 0
0.0633333 -0.00833333 0
0.06 -0.00833333 0
0.0566667 -0.00833333 0
0.0533333 -0.00833333 0
0.05 -0.00833333 0
0.0466667 -0.00833333 0
0.0433333 -0.00833333 0
0.04 -0.00833333 0
0.0366667 -0.00833333 0
0.0333333 -0.00833333 0
0.03 -0.00833333 0
0.0266667 -0.00833333 0
0.0233333 -0.00833333 0
0.02 -0.00833333 0
0.0166667 -0.00833333 0
0.0133333 -0.00833333 0
0.01 -0.00833333 0
0.00666667 -0.00833333 0
0.00333333 -0.00833333 0
0 -0.00833333 0
0.1 -0.0116667 0
0.0966667 -0.0116667 0
0.0933333 -0.0116667 0
0.09 -0.0116667 0
0.0866667 -0.0116667 0
0.0833333 -0.0116667 0
0.08 -0.0116667 0
0.0766667 -0.0116667 0
0.0733333 -0.0116667 0
0.07 -0.0116667 0
0.0666667 -0.0116667 0
0.0633333 -0.0116667 0
0.06 -0.0116667 0
0.0566667 -0.0116667 0
0.0533333 -0.0116667 0
0.05 -0.0116667 0
0.0466667 -0.0116667 0
0.0433333 -0.0116667 0
0.04 -0.0116667 0
0.0366667 -0.0116667 0
0.0333333 -0.0116667 0
0.03 -0.0116667 0
0.0266667 -0.0116667 0
0.0233333 -0.0116667 0
0.02 -0.0116667 0
0.0166667 -0.0116667 0
0.0133333 -0.0116667 0
0.01 -0.0116667 0
0.00666667 -0.0116667 0
0.00333333 -0.0116667 0
0 -0.0116667 0
0.1 -0.015 0
0.0966667 -0.015 0
0.0933333 -0.015 0
0.09 -0.015 0
0.0866667 -0.015 0
0.0833333 -0.015 0
0.08 -0.015 0
0.0766667 -0.015 0
0.0733333 -0.015 0
0.07 -0.015 0
0.0666667 -0.015 0
0.0633333 -0.015 0
0.06 -0.015 0
0.0566667 -0.015 0
0.0533333 -0.015 0
0.05 -0.015 0
0.0466667 -0.015 0
0.0433333 -0.015 0
0.04 -0.015 0
0.0366667 -0.015 0
0.0333333 -0.015 0
0.03 -0.015 0
0.0266667 -0.015 0
0.0233333 -0.015 0
0.02 -0.015 0
0.0166667 -0.015 0
0.0133333 -0.015 0
0.01 -0.015 0
0.00666667 -0.015 0
0.00333333 -0.015 0
0 -0.015 0
0.1 -0.0183333 0
0.0966667 -0.0183333 0
0.0933333 -0.0183333 0
0.09 -0.0183333 0
0.0866667 -0.0183333 0
0.0833333 -0.0183333 0
0.08 -0.0183333 0
0.0766667 -0.0183333 0
0.0733333 -0.0183333 0
0.07 -0.0183333 0
0.0666667 -0.0183333 0
0.0633333 -0.0183333 0
0.06 -0.0183333 0
0.0566667 -0.0183333 0
0.0533333 -0.0183333 0
0.05 -0.0183333 0
0.0466667 -0.0183333 0
0.0433333 -0.0183333 0
0.04 -0.0183333 0
0.0366667 -0.0183333 0
0.0333333 -0.0183333 0
0.03 -0.0183333 0
0.0266667 -0.0183333 0
0.0233333 -0.0183333 0
0.02 -0.0183333 0
0.0166667 -0.0183333 0
0.0133333 -0.0183333 0
0.01 -0.0183333 0
0.00666667 -0.0183333 0
0.00333333 -0.0183333 0
0 -0.0183333 0
0.1 -0.0216667 0
0.0966667 -0.0216667 0
0.0933333 -0.0216667 0
0.09 -0.0216667 0
0.0866667 -0.0216667 0
0.0833333 -0.0216667 0
0.08 -0.0216667 0
0.0766667 -0.0216667 0
0.0733333 -0.0216667 0
0.07 -0.0216667 0
0.0666667 -0.0216667 0
0.0633333 -0.0216667 0
0.06 -0.0216667 0
0.0566667 -0.0216667 0
0.0533333 -0.0216667 0
0.05 -0.0216667 0
0.0466667 -0.0216667 0
0.0433333 -0.0216667 0
0.04 -0.0216667 0
0.0366667 -0.0216667 0
0.0333333 -0.0216667 0
0.03 -0.0216667 0
0.0266667 -0.0216667 0
0.0233333 -0.0216667 0
0.02 -0.0216667 0
0.0166667 -0.0216667 0
0.0133333 -0.0216667 0
0.01 -0.0216667 0
0.00666667 -0.0216667 0
0.00333333 -0.0216667 0
0 -0.0216667 0
0.1 -0.025 0
0.0966667 -0.025 0
0.0933333 -0.025 0
0.09 -0.025 0
0.0866667 -0.025 0
0.0833333 -0.025 0
0.08 -0.025 0
0.0766667 -0.025 0
0.0733333 -0.025 0
0.07 -0.025 0
0.0666667 -0.025 0
0.0633333 -0.025 0
0.06 -0.025 0
0.0566667 -0.025 0
0.0533333 -0.025 0
0.05 -0.025 0
0.0466667 -0.025 0
0.0433333 -0.025 0
0.04 -0.025 0
0.0366667 -0.025 0
0.0333333 -0.025 0
0.03 -0.025 0
0.0266667 -0.025 0
0.0233333 -0.025 0
0.02 -0.025 0
0.0166667 -0.025 0
0.0133333 -0.025 0
0.01 -0.025 0
0.00666667 -0.025 0
0.00333333 -0.025 0
0 -0.025 0
0.1 -0.0283333 0
0.0966667 -0.0283333 0
0.0933333 -0.0283333 0
0.09 -0.0283333 0
0.0866667 -0.0283333 0
0.0833333 -0.0283333 0
0.08 -0.0283333 0
0.0766667 -0.0283333 0
0.0733333 -0.0283333 0
0.07 -0.0283333 0
0.0666667 -0.0283333 0
0.0633333 -0.0283333 0
0.06 -0.0283333 0
0.0566667 -0.0283333 0
0.0533333 -0.0283333 0
0.05 -0.0283333 0
0.0466667 -0.0283333 0
0.0433333 -0.0283333 0
0.04 -0.0283333 0
0.0366667 -0.0283333 0
0.0333333 -0.0283333 0
0.03 -0.0283333 0
0.0266667 -0.0283333 0
0.0233333 -0.0283333 0
0.02 -0.0283333 0
0.0166667 -0.0283333 0
0.0133333 -0.0283333 0
0.01 -0.0283333 0
0.00666667 -0.0283333 0
0.00333333 -0.0283333 0
0 -0.0283333 0
0.1 -0.0316667 0
0.0966667 -0.0316667 0
0.0933333 -0.0316667 0
0.09 -0.0316667 0
0.0866667 -0.0316667 0
0.0833333 -0.0316667 0
0.08 -0.0316667 0
0.0766667 -0.0316667 0
0.0733333 -0.0316667 0
0.07 -0.0316667 0
0.0666667 -0.0316667 0
0.0633333 -0.0316667 0
0.06 -0.0316667 0
0.0566667 -0.0316667 0
0.0533333 -0.0316667 0
0.05 -0.0316667 0
0.0466667 -0.0316667 0
0.0433333 -0.0316667 0
0.04 -0.0316667 0
0.0366667 -0.0316667 0
0.0333333 -0.0316667 0
0.03 -0.0316667 0
0.0266667 -0.0316667 0
0.0233333 -0.0316667 0
0.02 -0.0316667 0
0.0166667 -0.0316667 0
0.0133333 -0.0316667 0
0.01 -0.0316667 0
0.00666667 -0.0316667 0
0.00333333 -0.0316667 0
0 -0.0316667 0
0.1 -0.035 0
0.0966667 -0.035 0
0.0933333 -0.035 0
0.09 -0.035 0
0.0866667 -0.035 0
0.0833333 -0.035 0
0.08 -0.035 0
0.0766667 -0.035 0
0.0733333 -0.035 0
0.07 -0.035 0
0.0666667 -0.035 0
0.0633333 -0.035 0
0.06 -0.035 0
0.0566667 -0.035 0
0.0533333 -0.035 0
0.05 -0.035 0
0.0466667 -0.035 0
0.0433333 -0.035 0
0.04 -0.035 0
0.0366667 -0.035 0
0.0333333 -0.035 0
0.03 -0.035 0
0.0266667 -0.035 0
0.0233333 -0.035 0
0.02 -0.035 0
0.0166667 -0.035 0
0.0133333 -0.035 0
0.01 -0.035 0
0.00666667 -0.035 0
0.00333333 -0.035 0
0 -0.035 0
0.1 -0.0383333 0
0.0966667 -0.0383333 0
0.0933333 -0.0383333 0
0.09 -0.0383333 0
0.0866667 -0.0383333 0
0.0833333 -0.0383333 0
0.08 -0.0383333 0
0.0766667 -0.0383333 0
0.0733333 -0.0383333 0
0.07 -0.0383333 0
0.0666667 -0.0383333 0
0.0633333 -0.0383333 0
0.06 -0.0383333 0
0.0566667 -0.0383333 0
0.0533333 -0.0383333 0
0.05 -0.0383333 0
0.0466667 -0.0383333 0
0.0433333 -0.0383333 0
0.04 -0.0383333 0
0.0366667 -0.0383333 0
0.0333333 -0.0383333 0
0.03 -0.0383333 0
0.0266667 -0.0383333 0
0.0233333 -0.0383333 0
0.02 -0.0383333 0
0.0166667 -0.0383333 0
0.0133333 -0.0383333 0
0.01 -0.0383333 0
0.00666667 -0.0383333 0
0.00333333 -0.0383333 0
0 -0.0383333 0
0.1 -0.0416667 0
0.0966667 -0.0416667 0
0.0933333 -0.0416667 0
0.09 -0.0416667 0
0.0866667 -0.0416667 0
0.0833333 -0.0416667 0
0.08 -0.0416667 0
0.0766667 -0.0416667 0
0.0733333 -0.0416667 0
0.07 -0.0416667 0
0.0666667 -0.0416667 0
0.0633333 -0.0416667 0
0.06 -0.0416667 0
0.0566667 -0.0416667 0
0.0533333 -0.0416667 0
0.05 -0.0416667 0
0.0466667 -0.0416667 0
0.0433333 -0.0416667 0
0.04 -0.0416667 0
0.0366667 -0.0416667 0
0.0333333 -0.0416667 0
0.03 -0.0416667 0
0.0266667 -0.0416667 0
0.0233333 -0.0416667 0
0.02 -0.0416667 0
0.0166667 -0.0416667 0
0.0133333 -0.0416667 0
0.01 -0.0416667 0
0.00666667 -0.0416667 0
0.00333333 -0.0416667 0
0 -0.0416667 0
0.1 -0.045 0
0.0966667 -0.045 0
0.0933333 -0.045 0
0.09 -0.045 0
0.0866667 -0.045 0
0.0833333 -0.045 0
0.08 -0.045 0
0.0766667 -0.045 0
0.0733333 -0.045 0
0.07 -0.045 0
0.0666667 -0.045 0
0.0633333 -0.045 0
0.06 -0.045 0
0.0566667 -0.045 0
0.0533333 -0.045 0
0.05 -0.045 0
0.0466667 -0.045 0
0.0433333 -0.045 0
0.04 -0.045 0
0.0366667 -0.045 0
0.0333333 -0.045 0
0.03 -0.045 0
0.0266667 -0.045 0
0.0233333 -0.045 0
0.02 -0.045 0
0.0166667 -0.045 0
0.0133333 -0.045 0
0.01 -0.045 0
0.00666667 -0.045 0
0.00333333 -0.045 0
0 -0.045 0
0.1 -0.0483333 0
0.0966667 -0.0483333 0
0.0933333 -0.0483333 0
0.09 -0.0483333 0
0.0866667 -0.0483333 0
[...]
POINT_DATA 961
SCALARS Temp float 1
LOOKUP_TABLE default
610.044769
587.236898
566.043244
546.501666
528.634068
512.447497
497.935478
485.080402
473.855758
464.229111
456.164785
449.626800
444.581579
441.000269
438.860753
438.149158
438.860753
441.000269
444.581585
449.626809
456.164779
464.229119
473.855774
485.080407
497.935499
512.447497
528.634088
546.501670
566.043270
587.236960
610.044817
587.236932
563.547285
541.534247
521.237151
502.678739
485.866335
470.793213
457.441087
445.782425
435.783539
427.407379
420.616577
415.376258
411.656457
409.434205
408.695092
409.434206
411.656458
415.376265
420.616586
427.407373
435.783548
445.782441
457.441093
470.793235
485.866335
502.678760
521.237154
541.534272
563.547338
587.236962
566.043250
541.534225
518.759756
497.760540
478.560112
461.166050
445.571404
431.757265
419.695155
409.350233
400.684174
393.658327
388.236620
384.388056
382.088877
381.324178
382.088878
384.388057
388.236626
393.658336
400.684168
409.350241
419.695172
431.757270
445.571427
461.166049
478.560132
497.760542
518.759778
541.534272
566.043272
546.501654
521.237109
497.760522
476.113846
456.321348
438.390850
422.315198
408.074913
395.640654
384.976520
376.043020
368.800327
363.211269
359.243902
356.873746
356.085440
356.873746
359.243903
363.211275
368.800337
376.043014
384.976528
395.640671
408.074918
422.315221
438.390848
456.321367
476.113845
497.760540
521.237152
546.501670
528.634075
502.678717
478.560115
456.321371
435.987425
417.566324
401.050734
386.420660
373.645979
362.689829
353.511660
346.070572
340.328394
336.252325
333.817224
333.007316
333.817224
336.252326
340.328401
346.070581
353.511653
362.689838
373.645996
386.420665
401.050757
417.566321
435.987443
456.321368
478.560131
502.678759
528.634088
512.447491
485.866298
461.166038
438.390859
417.566309
398.700644
381.786372
366.803037
353.719814
342.498976
333.099019
325.478080
319.597089
315.422469
312.928486
312.098994
312.928487
315.422470
319.597096
325.478089
333.099011
342.498984
353.719831
366.803041
381.786394
398.700639
417.566326
438.390853
461.166052
485.866337
512.447502
497.935491
470.793196
445.571414
422.315229
401.050741
381.786395
364.514562
349.214379
335.854395
324.396115
314.797188
307.014892
301.009354
296.746309
294.199492
293.352427
294.199493
296.746310
301.009361
307.014901
314.797180
324.396124
335.854411
349.214382
364.514584
381.786390
401.050757
422.315222
445.571426
470.793234
497.935500
485.080404
457.441058
431.757262
408.074931
386.420654
366.803047
349.214365
333.633387
320.028116
308.359382
298.584086
290.658753
284.542803
280.201365
277.607708
276.745062
277.607708
280.201366
284.542810
290.658762
298.584078
308.359390
320.028132
333.633389
349.214386
366.803040
386.420669
408.074922
431.757273
457.441095
485.080411
473.855771
445.782406
419.695164
395.640685
373.645986
353.719837
335.854394
320.028130
306.208574
294.355971
284.426576
276.376258
270.163827
265.753883
263.119292
262.243030
263.119292
265.753883
270.163833
276.376267
284.426567
294.355979
306.208590
320.028132
335.854415
353.719830
373.646000
395.640675
419.695174
445.782443
473.855778
464.229112
435.783508
409.350229
384.976538
362.689822
342.498985
324.396100
308.359382
294.355956
282.345572
272.283932
264.126349
257.831110
253.362367
250.692641
249.804692
250.692641
253.362367
257.831116
264.126358
272.283923
282.345579
294.355972
308.359384
324.396121
342.498977
362.689836
384.976527
409.350238
435.783545
464.229118
456.164778
427.407339
400.684161
376.043030
353.511643
333.099018
314.797163
298.584076
284.426551
272.283921
262.111433
253.863935
247.499280
242.981244
240.282064
239.384317
240.282064
242.981245
247.499286
253.863945
262.111424
272.283929
284.426567
298.584077
314.797184
333.099010
353.511656
376.043018
400.684170
427.407375
456.164783
449.626805
420.616548
393.658326
368.800349
346.070568
325.478093
307.014880
290.658756
276.376247
264.126352
253.863950
245.543513
239.122544
234.564520
231.841443
230.935747
231.841443
234.564520
239.122551
245.543522
253.863940
264.126360
276.376263
290.658758
307.014901
325.478084
346.070581
368.800337
393.658335
420.616584
449.626809
444.581583
415.376228
388.236618
363.211289
340.328389
319.597101
301.009341
284.542805
270.163814
257.831112
247.499293
239.122543
232.658096
228.069196
225.327668
224.415835
225.327668
228.069196
232.658102
239.122552
247.499284
257.831120
270.163830
284.542807
301.009362
319.597092
340.328402
363.211277
388.236626
415.376264
444.581587
441.000268
411.656423
384.388049
359.243918
336.252315
315.422477
296.746291
280.201362
265.753865
253.362364
242.981253
234.564514
228.069191
223.458364
220.703733
219.787541
220.703734
223.458365
228.069197
234.564523
242.981243
253.362372
265.753881
280.201364
296.746312
315.422467
336.252329
359.243906
384.388058
411.656459
441.000272
438.860753
409.434171
382.088871
356.873763
333.817215
312.928494
294.199475
277.607706
263.119275
250.692640
240.282073
231.841438
225.327664
220.703734
217.941273
217.022476
217.941273
220.703735
225.327671
231.841447
240.282064
250.692648
263.119292
277.607708
294.199497
312.928485
333.817228
356.873751
382.088880
409.434208
438.860758
438.149158
408.695059
381.324173
356.085457
333.007308
312.099003
293.352410
276.745061
262.243014
249.804691
239.384327
230.935743
224.415832
219.787543
217.022477
216.102814
217.022478
219.787544
224.415839
230.935753
239.384318
249.804700
262.243031
276.745063
293.352432
312.098994
333.007322
356.085446
381.324182
408.695096
438.149164
438.860753
409.434171
382.088871
356.873763
333.817215
312.928494
294.199475
277.607706
263.119275
250.692640
240.282073
231.841438
225.327664
220.703735
217.941274
217.022477
217.941274
220.703736
225.327671
231.841448
240.282064
250.692648
263.119292
277.607709
294.199498
312.928486
333.817229
356.873752
382.088881
409.434209
438.860759
441.000267
411.656423
384.388049
359.243918
336.252315
315.422477
296.746291
280.201362
265.753865
253.362365
242.981253
234.564514
228.069191
223.458365
220.703734
219.787542
220.703735
223.458366
228.069199
234.564524
242.981245
253.362374
265.753883
280.201366
296.746314
315.422469
336.252331
359.243908
384.388060
411.656461
441.000274
444.581582
415.376228
388.236617
363.211289
340.328389
319.597101
301.009341
284.542806
270.163815
257.831113
247.499294
239.122544
232.658097
228.069197
225.327669
224.415836
225.327670
228.069198
232.658104
239.122554
247.499286
257.831122
270.163833
284.542810
301.009365
319.597095
340.328405
363.211280
388.236629
415.376268
444.581590
449.626804
420.616548
393.658326
368.800349
346.070568
325.478093
307.014880
290.658757
276.376247
264.126353
253.863951
245.543514
239.122546
234.564522
231.841445
230.935750
231.841446
234.564523
239.122554
245.543525
253.863944
264.126364
276.376267
290.658762
307.014905
325.478088
346.070585
368.800341
393.658339
420.616589
449.626814
456.164781
427.407343
400.684165
376.043034
353.511647
333.099023
314.797168
298.584081
284.426557
272.283928
262.111440
253.863942
247.499287
242.981252
240.282072
239.384325
240.282072
242.981254
247.499295
253.863954
262.111434
272.283939
284.426577
298.584087
314.797194
333.099020
353.511667
376.043028
400.684180
427.407385
456.164793
464.229106
435.783502
409.350222
384.976531
362.689816
342.498979
324.396095
308.359376
294.355951
282.345567
272.283927
264.126344
257.831106
253.362363
250.692638
249.804689
250.692639
253.362365
257.831114
264.126356
272.283921
282.345579
294.355972
308.359384
324.396122
342.498978
362.689837
384.976528
409.350240
435.783546
464.229120
473.855775
445.782411
419.695169
395.640690
373.645991
353.719843
335.854401
320.028137
306.208582
294.355980
284.426585
276.376268
270.163837
265.753893
263.119303
262.243041
263.119304
265.753895
270.163846
276.376280
284.426580
294.355992
306.208604
320.028146
335.854430
353.719844
373.646015
395.640690
419.695189
445.782458
473.855792
485.080395
457.441048
431.757252
408.074922
386.420645
366.803039
349.214357
333.633379
320.028109
308.359375
298.584080
290.658747
284.542798
280.201360
277.607704
276.745058
277.607705
280.201363
284.542807
290.658760
298.584076
308.359389
320.028132
333.633390
349.214387
366.803042
386.420671
408.074925
431.757276
457.441098
485.080415
497.935500
470.793205
445.571423
422.315240
401.050753
381.786408
364.514576
349.214393
335.854411
324.396132
314.797205
307.014910
301.009373
296.746328
294.199512
293.352447
294.199514
296.746331
301.009382
307.014923
314.797202
324.396146
335.854435
349.214406
364.514608
381.786414
401.050782
422.315247
445.571451
470.793258
497.935524
512.447486
485.866294
461.166034
438.390855
417.566306
398.700642
381.786371
366.803038
353.719815
342.498978
333.099021
325.478083
319.597093
315.422474
312.928491
312.098999
312.928493
315.422477
319.597103
325.478097
333.099019
342.498993
353.719840
366.803052
381.786405
398.700651
417.566339
438.390867
461.166066
485.866352
512.447516
528.634055
502.678697
478.560094
456.321351
435.987406
417.566306
401.050717
386.420644
373.645963
362.689814
353.511645
346.070558
340.328380
336.252312
333.817211
333.007304
333.817213
336.252315
340.328390
346.070571
353.511644
362.689830
373.645989
386.420659
401.050753
417.566318
435.987442
456.321368
478.560133
502.678762
528.634092
546.501651
521.237106
497.760520
476.113847
456.321351
438.390854
422.315204
408.074920
395.640662
384.976529
376.043031
368.800339
363.211280
359.243915
356.873759
356.085454
356.873761
359.243918
363.211291
368.800353
376.043031
384.976546
395.640689
408.074937
422.315241
438.390870
456.321390
476.113869
497.760566
521.237179
546.501697
566.043225
541.534200
518.759733
497.760519
478.560093
461.166032
445.571388
431.757250
419.695141
409.350220
400.684161
393.658315
388.236609
384.388046
382.088867
381.324169
382.088869
384.388049
388.236619
393.658329
400.684162
409.350236
419.695168
431.757268
445.571426
461.166050
478.560135
497.760548
518.759788
541.534286
566.043286
587.236928
563.547283
541.534250
521.237159
502.678751
485.866349
470.793230
457.441106
445.782445
435.783561
427.407402
420.616600
415.376283
411.656482
409.434231
408.695119
409.434233
411.656486
415.376293
420.616614
427.407402
435.783577
445.782471
457.441124
470.793268
485.866368
502.678796
521.237192
541.534314
563.547385
587.237017
610.044730
587.236866
566.043226
546.501652
528.634057
512.447488
497.935470
485.080396
473.855753
464.229107
456.164782
449.626798
444.581578
441.000268
438.860753
438.149158
438.860754
441.000271
444.581587
449.626811
456.164782
464.229123
473.855779
485.080414
497.935508
512.447507
528.634100
546.501686
566.043291
587.236988
610.044863
