# vtk DataFile Version 2.0
Unstructured Grid Example
ASCII
DATASET UNSTRUCTURED_GRID

POINTS 961 float
0.1 0.005 0
0.0966667 0.005 0
0.0933333 0.005 0
0.09 0.005 0
0.0866667 0.005 0
0.0833333 0.005 0
0.08 0.005 0
0.0766667 0.005 0
0.0733333 0.005 0
0.07 0.005 0
0.0666667 0.005 0
0.0633333 0.005 0
0.06 0.005 0
0.0566667 0.005 0
0.0533333 0.005 0
0.05 0.005 0
0.0466667 0.005 0
0.0433333 0.005 0
0.04 0.005 0
0.0366667 0.005 0
0.0333333 0.005 0
0.03 0.005 0
0.0266667 0.005 0
0.0233333 0.005 0
0.02 0.005 0
0.0166667 0.005 0
0.0133333 0.005 0
0.01 0.005 0
0.00666667 0.005 0
0.00333333 0.005 0
0 0.005 0
0.1 0.00166667 0
0.0966667 0.00166667 0
0.0933333 0.00166667 0
0.09 0.00166667 0
0.0866667 0.00166667 0
0.0833333 0.00166667 0
0.08 0.00166667 0
0.0766667 0.00166667 0
0.0733333 0.00166667 0
0.07 0.00166667 0
0.0666667 0.00166667 0
0.0633333 0.00166667 0
0.06 0.00166667 0
0.0566667 0.00166667 0
0.0533333 0.00166667 0
0.05 0.00166667 0
0.0466667 0.00166667 0
0.0433333 0.00166667 0
0.04 0.00166667 0
0.0366667 0.00166667 0
0.0333333 0.00166667 0
0.03 0.00166667 0
0.0266667 0.00166667 0
0.0233333 0.00166667 0
0.02 0.00166667 0
0.0166667 0.00166667 0
0.0133333 0.00166667 0
0.01 0.00166667 0
0.00666667 0.00166667 0
0.00333333 0.00166667 0
0 0.00166667 0
0.1 -0.00166667 0
0.0966667 -0.00166667 0
0.0933333 -0.00166667 0
0.09 -0.00166667 0
0.0866667 -0.00166667 0
0.0833333 -0.00166667 0
0.08 -0.00166667 0
0.0766667 -0.00166667 0
0.0733333 -0.00166667 0
0.07 -0.00166667 0
0.0666667 -0.00166667 0
0.0633333 -0.00166667 0
0.06 -0.00166667 0
0.0566667 -0.00166667 0
0.0533333 -0.00166667 0
0.05 -0.00166667 0
0.0466667 -0.00166667 0
0.0433333 -0.00166667 0
0.04 -0.00166667 0
0.0366667 -0.00166667 0
0.0333333 -0.00166667 0
0.03 -0.00166667 0
0.0266667 -0.00166667 0
0.0233333 -0.00166667 0
0.02 -0.00166667 0
0.0166667 -0.00166667 0
0.0133333 -0.00166667 0
0.01 -0.00166667 0
0.00666667 -0.00166667 0
0.00333333 -0.00166667 0
0 -0.00166667 0
0.1 -0.005 0
0.0966667 -0.005 0
0.0933333 -0.005 0
0.09 -0.005 0
0.0866667 -0.005 0
0.0833333 -0.005 0
0.08 -0.005 0
0.0766667 -0.005 0
0.0733333 -0.005 0
0.07 -0.005 0
0.0666667 -0.005 0
0.0633333 -0.005 0
0.06 -0.005 0
0.0566667 -0.005 0
0.0533333 -0.005 0
0.05 -0.005 0
0.0466667 -0.005 0
0.0433333 -0.005 0
0.04 -0.005 0
0.0366667 -0.005 0
0.0333333 -0.005 0
0.03 -0.005 0
0.0266667 -0.005 0
0.0233333 -0.005 0
0.02 -0.005 0
0.0166667 -0.005 0
0.0133333 -0.005 0
0.01 -0.005 0
0.00666667 -0.005 0
0.00333333 -0.005 0
0 -0.005 0
0.1 -0.00833333 0
0.0966667 -0.00833333 0
0.0933333 -0.00833333 0
0.09 -0.00833333 0
0.0866667 -0.00833333 0
0.0833333 -0.00833333 0
0.08 -0.00833333 0
0.0766667 -0.00833333 0
0.0733333 -0.00833333 0
0.07 -0.00833333 0
0.0666667 -0.00833333 0
0.0633333 -0.00833333 0
0.06 -0.00833333 0
0.0566667 -0.00833333 0
0.0533333 -0.00833333 0
0.05 -0.00833333 0
0.0466667 -0.00833333 0
0.0433333 -0.00833333 0
0.04 -0.00833333 0
0.0366667 -0.00833333 0
0.0333333 -0.00833333 0
0.03 -0.00833333 0
0.0266667 -0.00833333 0
0.0233333 -0.00833333 0
0.02 -0.00833333 0
0.0166667 -0.00833333 0
0.0133333 -0.00833333 0
0.01 -0.00833333 0
0.00666667 -0.00833333 0
0.00333333 -0.00833333 0
0 -0.00833333 0
0.1 -0.0116667 0
0.0966667 -0.0116667 0
0.0933333 -0.0116667 0
0.09 -0.0116667 0
0.0866667 -0.0116667 0
0.0833333 -0.0116667 0
0.08 -0.0116667 0
0.0766667 -0.0116667 0
0.0733333 -0.0116667 0
0.07 -0.0116667 0
0.0666667 -0.0116667 0
0.0633333 -0.0116667 0
0.06 -0.0116667 0
0.0566667 -0.0116667 0
0.0533333 -0.0116667 0
0.05 -0.0116667 0
0.0466667 -0.0116667 0
0.0433333 -0.0116667 0
0.04 -0.0116667 0
0.0366667 -0.0116667 0
0.0333333 -0.0116667 0
0.03 -0.0116667 0
0.0266667 -0.0116667 0
0.0233333 -0.0116667 0
0.02 -0.0116667 0
0.0166667 -0.0116667 0
0.0133333 -0.0116667 0
0.01 -0.0116667 0
0.00666667 -0.0116667 0
0.00333333 -0.0116667 0
0 -0.0116667 0
0.1 -0.015 0
0.0966667 -0.015 0
0.0933333 -0.015 0
0.09 -0.015 0
0.0866667 -0.015 0
0.0833333 -0.015 0
0.08 -0.015 0
0.0766667 -0.015 0
0.0733333 -0.015 0
0.07 -0.015 0
0.0666667 -0.015 0
0.0633333 -0.015 0
0.06 -0.015 0
0.0566667 -0.015 0
0.0533333 -0.015 0
0.05 -0.015 0
0.0466667 -0.015 0
0.0433333 -0.015 0
0.04 -0.015 0
0.0366667 -0.015 0
0.0333333 -0.015 0
0.03 -0.015 0
0.0266667 -0.015 0
0.0233333 -0.015 0
0.02 -0.015 0
0.0166667 -0.015 0
0.0133333 -0.015 0
0.01 -0.015 0
0.00666667 -0.015 0
0.00333333 -0.015 0
0 -0.015 0
0.1 -0.0183333 0
0.0966667 -0.0183333 0
0.0933333 -0.0183333 0
0.09 -0.0183333 0
0.0866667 -0.0183333 0
0.0833333 -0.0183333 0
0.08 -0.0183333 0
0.0766667 -0.0183333 0
0.0733333 -0.0183333 0
0.07 -0.0183333 0
0.0666667 -0.0183333 0
0.0633333 -0.0183333 0
0.06 -0.0183333 0
0.0566667 -0.0183333 0
0.0533333 -0.0183333 0
0.05 -0.0183333 0
0.0466667 -0.0183333 0
0.0433333 -0.0183333 0
0.04 -0.0183333 0
0.0366667 -0.0183333 0
0.0333333 -0.0183333 0
0.03 -0.0183333 0
0.0266667 -0.0183333 0
0.0233333 -0.0183333 0
0.02 -0.0183333 0
0.0166667 -0.0183333 0
0.0133333 -0.0183333 0
0.01 -0.0183333 0
0.00666667 -0.0183333 0
0.00333333 -0.0183333 0
0 -0.0183333 0
0.1 -0.0216667 0
0.0966667 -0.0216667 0
0.0933333 -0.0216667 0
0.09 -0.0216667 0
0.0866667 -0.0216667 0
0.0833333 -0.0216667 0
0.08 -0.0216667 0
0.0766667 -0.0216667 0
0.0733333 -0.0216667 0
0.07 -0.0216667 0
0.0666667 -0.0216667 0
0.0633333 -0.0216667 0
0.06 -0.0216667 0
0.0566667 -0.0216667 0
0.0533333 -0.0216667 0
0.05 -0.0216667 0
0.0466667 -0.0216667 0
0.0433333 -0.0216667 0
0.04 -0.0216667 0
0.0366667 -0.0216667 0
0.0333333 -0.0216667 0
0.03 -0.0216667 0
0.0266667 -0.0216667 0
0.0233333 -0.0216667 0
0.02 -0.0216667 0
0.0166667 -0.0216667 0
0.0133333 -0.0216667 0
0.01 -0.0216667 0
0.00666667 -0.0216667 0
0.00333333 -0.0216667 0
0 -0.0216667 0
0.1 -0.025 0
0.0966667 -0.025 0
0.0933333 -0.025 0
0.09 -0.025 0
0.0866667 -0.025 0
0.0833333 -0.025 0
0.08 -0.025 0
0.0766667 -0.025 0
0.0733333 -0.025 0
0.07 -0.025 0
0.0666667 -0.025 0
0.0633333 -0.025 0
0.06 -0.025 0
0.0566667 -0.025 0
0.0533333 -0.025 0
0.05 -0.025 0
0.0466667 -0.025 0
0.0433333 -0.025 0
0.04 -0.025 0
0.0366667 -0.025 0
0.0333333 -0.025 0
0.03 -0.025 0
0.0266667 -0.025 0
0.0233333 -0.025 0
0.02 -0.025 0
0.0166667 -0.025 0
0.0133333 -0.025 0
0.01 -0.025 0
0.00666667 -0.025 0
0.00333333 -0.025 0
0 -0.025 0
0.1 -0.0283333 0
0.0966667 -0.0283333 0
0.0933333 -0.0283333 0
0.09 -0.0283333 0
0.0866667 -0.0283333 0
0.0833333 -0.0283333 0
0.08 -0.0283333 0
0.0766667 -0.0283333 0
0.0733333 -0.0283333 0
0.07 -0.0283333 0
0.0666667 -0.0283333 0
0.0633333 -0.0283333 0
0.06 -0.0283333 0
0.0566667 -0.0283333 0
0.0533333 -0.0283333 0
0.05 -0.0283333 0
0.0466667 -0.0283333 0
0.0433333 -0.0283333 0
0.04 -0.0283333 0
0.0366667 -0.0283333 0
0.0333333 -0.0283333 0
0.03 -0.0283333 0
0.0266667 -0.0283333 0
0.0233333 -0.0283333 0
0.02 -0.0283333 0
0.0166667 -0.0283333 0
0.0133333 -0.0283333 0
0.01 -0.0283333 0
0.00666667 -0.0283333 0
0.00333333 -0.0283333 0
0 -0.0283333 0
0.1 -0.0316667 0
0.0966667 -0.0316667 0
0.0933333 -0.0316667 0
0.09 -0.0316667 0
0.0866667 -0.0316667 0
0.0833333 -0.0316667 0
0.08 -0.0316667 0
0.0766667 -0.0316667 0
0.0733333 -0.0316667 0
0.07 -0.0316667 0
0.0666667 -0.0316667 0
0.0633333 -0.0316667 0
0.06 -0.0316667 0
0.0566667 -0.0316667 0
0.0533333 -0.0316667 0
0.05 -0.0316667 0
0.0466667 -0.0316667 0
0.0433333 -0.0316667 0
0.04 -0.0316667 0
0.0366667 -0.0316667 0
0.0333333 -0.0316667 0
0.03 -0.0316667 0
0.0266667 -0.0316667 0
0.0233333 -0.0316667 0
0.02 -0.0316667 0
0.0166667 -0.0316667 0
0.0133333 -0.0316667 0
0.01 -0.0316667 0
0.00666667 -0.0316667 0
0.00333333 -0.0316667 0
0 -0.0316667 0
0.1 -0.035 0
0.0966667 -0.035 0
0.0933333 -0.035 0
0.09 -0.035 0
0.0866667 -0.035 0
0.0833333 -0.035 0
0.08 -0.035 0
0.0766667 -0.035 0
0.0733333 -0.035 0
0.07 -0.035 0
0.0666667 -0.035 0
0.0633333 -0.035 0
0.06 -0.035 0
0.0566667 -0.035 0
0.0533333 -0.035 0
0.05 -0.035 0
0.0466667 -0.035 0
0.0433333 -0.035 0
0.04 -0.035 0
0.0366667 -0.035 0
0.0333333 -0.035 0
0.03 -0.035 0
0.0266667 -0.035 0
0.0233333 -0.035 0
0.02 -0.035 0
0.0166667 -0.035 0
0.0133333 -0.035 0
0.01 -0.035 0
0.00666667 -0.035 0
0.00333333 -0.035 0
0 -0.035 0
0.1 -0.0383333 0
0.0966667 -0.0383333 0
0.0933333 -0.0383333 0
0.09 -0.0383333 0
0.0866667 -0.0383333 0
0.0833333 -0.0383333 0
0.08 -0.0383333 0
0.0766667 -0.0383333 0
0.0733333 -0.0383333 0
0.07 -0.0383333 0
0.0666667 -0.0383333 0
0.0633333 -0.0383333 0
0.06 -0.0383333 0
0.0566667 -0.0383333 0
0.0533333 -0.0383333 0
0.05 -0.0383333 0
0.0466667 -0.0383333 0
0.0433333 -0.0383333 0
0.04 -0.0383333 0
0.0366667 -0.0383333 0
0.0333333 -0.0383333 0
0.03 -0.0383333 0
0.0266667 -0.0383333 0
0.0233333 -0.0383333 0
0.02 -0.0383333 0
0.0166667 -0.0383333 0
0.0133333 -0.0383333 0
0.01 -0.0383333 0
0.00666667 -0.0383333 0
0.00333333 -0.0383333 0
0 -0.0383333 0
0.1 -0.0416667 0
0.0966667 -0.0416667 0
0.0933333 -0.0416667 0
0.09 -0.0416667 0
0.0866667 -0.0416667 0
0.0833333 -0.0416667 0
0.08 -0.0416667 0
0.0766667 -0.0416667 0
0.0733333 -0.0416667 0
0.07 -0.0416667 0
0.0666667 -0.0416667 0
0.0633333 -0.0416667 0
0.06 -0.0416667 0
0.0566667 -0.0416667 0
0.0533333 -0.0416667 0
0.05 -0.0416667 0
0.0466667 -0.0416667 0
0.0433333 -0.0416667 0
0.04 -0.0416667 0
0.0366667 -0.0416667 0
0.0333333 -0.0416667 0
0.03 -0.0416667 0
0.0266667 -0.0416667 0
0.0233333 -0.0416667 0
0.02 -0.0416667 0
0.0166667 -0.0416667 0
0.0133333 -0.0416667 0
0.01 -0.0416667 0
0.00666667 -0.0416667 0
0.00333333 -0.0416667 0
0 -0.0416667 0
0.1 -0.045 0
0.0966667 -0.045 0
0.0933333 -0.045 0
0.09 -0.045 0
0.0866667 -0.045 0
0.0833333 -0.045 0
0.08 -0.045 0
0.0766667 -0.045 0
0.0733333 -0.045 0
0.07 -0.045 0
0.0666667 -0.045 0
0.0633333 -0.045 0
0.06 -0.045 0
0.0566667 -0.045 0
0.0533333 -0.045 0
0.05 -0.045 0
0.0466667 -0.045 0
0.0433333 -0.045 0
0.04 -0.045 0
0.0366667 -0.045 0
0.0333333 -0.045 0
0.03 -0.045 0
0.0266667 -0.045 0
0.0233333 -0.045 0
0.02 -0.045 0
0.0166667 -0.045 0
0.0133333 -0.045 0
0.01 -0.045 0
0.00666667 -0.045 0
0.00333333 -0.045 0
0 -0.045 0
0.1 -0.0483333 0
0.0966667 -0.0483333 0
0.0933333 -0.0483333 0
0.09 -0.0483333 0
0.0866667 -0.0483333 0
[...]
POINT_DATA 961
SCALARS Temp float 1
LOOKUP_TABLE default
814.823011
799.848406
785.760542
772.590402
760.366835
749.116554
738.863913
729.631080
721.437825
714.301674
708.237764
703.258905
699.375602
696.595999
694.925909
694.368824
694.925909
696.596000
699.375607
703.258913
708.237761
714.301681
721.437838
729.631086
738.863931
749.116556
760.366851
772.590407
785.760561
799.848450
814.823045
799.848429
784.291648
769.656081
755.973923
743.275137
731.587476
720.936242
711.344462
702.832676
695.419092
689.119434
683.947012
679.912736
677.025070
675.290051
674.711309
675.290052
677.025071
679.912742
683.947020
689.119431
695.419100
702.832690
711.344468
720.936260
731.587479
743.275154
755.973927
769.656100
784.291686
799.848451
785.760546
769.656066
754.505230
740.341372
727.195507
715.096366
704.070139
694.140668
685.329212
677.654622
671.133176
665.778651
661.602344
658.613013
656.816911
656.217793
656.816911
658.613014
661.602349
665.778659
671.133173
677.654630
685.329227
694.140673
704.070158
715.096367
727.195524
740.341375
754.505248
769.656100
785.760563
772.590394
755.973895
740.341359
725.727179
712.163360
699.679543
688.302753
678.057588
668.965984
661.047391
654.318605
648.793840
644.484753
641.400380
639.547173
638.929008
639.547174
641.400382
644.484759
648.793849
654.318601
661.047399
668.965999
678.057593
688.302772
699.679544
712.163376
725.727181
740.341374
755.973927
772.590408
760.366840
743.275123
727.195509
712.163376
698.211642
685.370798
673.668641
663.130472
653.778856
645.633797
638.712573
633.029805
628.597480
625.424898
623.518690
622.882846
623.518691
625.424899
628.597487
633.029813
638.712569
645.633806
653.778870
663.130477
673.668660
685.370798
698.211658
712.163377
727.195523
743.275153
760.366852
749.116549
731.587452
715.096357
699.679549
685.370787
672.201342
660.199725
649.391881
639.800956
631.447463
624.349123
618.520931
613.975183
610.721413
608.766425
608.114309
608.766426
610.721414
613.975189
618.520940
624.349119
631.447471
639.800970
649.391887
660.199743
672.201342
685.370802
699.679548
715.096370
731.587481
749.116560
738.863922
720.936231
704.070146
688.302774
673.668646
660.199741
647.925219
636.871615
627.062601
618.519159
611.259409
605.298690
600.649576
597.321818
595.322376
594.655431
595.322377
597.321819
600.649582
605.298699
611.259405
618.519167
627.062616
636.871620
647.925237
660.199740
673.668660
688.302773
704.070158
720.936260
738.863932
729.631081
711.344442
694.140665
678.057600
663.130467
649.391888
636.871605
625.596687
615.591277
606.876777
599.471673
593.391608
588.649409
585.255023
583.215548
582.535250
583.215549
585.255025
588.649416
593.391617
599.471669
606.876786
615.591292
625.596692
636.871624
649.391887
663.130481
678.057597
694.140676
711.344471
729.631089
721.437834
702.832665
685.329219
668.966006
653.778861
639.800972
627.062601
615.591287
605.411595
596.545299
589.011206
582.825234
578.000432
574.546919
572.471919
571.779771
572.471920
574.546921
578.000438
582.825243
589.011202
596.545307
605.411610
615.591292
627.062620
639.800970
653.778874
668.966003
685.329230
702.832693
721.437842
714.301674
695.419071
677.654619
661.047403
645.633792
631.447470
618.519148
606.876777
596.545288
587.546780
579.900341
573.622126
568.725377
565.220367
563.114425
562.411956
563.114425
565.220368
568.725384
573.622135
579.900337
587.546788
596.545303
606.876781
618.519166
631.447467
645.633805
661.047400
677.654629
695.419099
714.301682
708.237758
689.119406
671.133166
654.318610
638.712560
624.349122
611.259390
599.471665
589.011187
579.900333
572.158429
565.801830
560.843945
557.295175
555.162940
554.451701
555.162941
557.295176
560.843952
565.801839
572.158424
579.900342
589.011202
599.471669
611.259409
624.349120
638.712573
654.318606
671.133176
689.119434
708.237765
703.258908
683.946992
665.778651
648.793855
633.029802
618.520940
605.298681
593.391611
582.825226
573.622128
565.801841
559.380884
554.372803
550.788103
548.634280
547.915840
548.634281
550.788105
554.372810
559.380893
565.801836
573.622137
582.825241
593.391615
605.298700
618.520938
633.029815
648.793851
665.778661
683.947021
703.258915
699.375604
679.912716
661.602342
644.484766
628.597476
613.975191
600.649566
588.649410
578.000422
568.725379
560.843955
554.372802
549.325570
545.712846
543.542186
542.818129
543.542186
545.712848
549.325577
554.372811
560.843950
568.725387
578.000437
588.649415
600.649585
613.975188
628.597490
644.484762
661.602352
679.912744
699.375611
696.595997
677.025046
658.613008
641.400391
625.424890
610.721417
597.321804
585.255020
574.546906
565.220365
557.295181
550.788098
545.712842
542.080060
539.897347
539.169270
539.897348
542.080061
545.712849
550.788107
557.295176
565.220373
574.546921
585.255025
597.321823
610.721415
625.424903
641.400386
658.613018
677.025075
696.596005
694.925907
675.290028
656.816905
639.547184
623.518683
608.766430
595.322362
583.215546
572.471906
563.114423
555.162947
548.634276
543.542182
539.897348
537.707394
536.976901
537.707394
539.897349
543.542189
548.634285
555.162942
563.114432
572.471921
583.215551
595.322382
608.766428
623.518697
639.547180
656.816916
675.290057
694.925915
694.368823
674.711286
656.217788
638.929019
622.882838
608.114314
594.655418
582.535248
571.779758
562.411954
554.451708
547.915836
542.818126
539.169271
536.976901
536.245603
536.976902
539.169272
542.818133
547.915845
554.451703
562.411963
571.779774
582.535253
594.655438
608.114313
622.882853
638.929015
656.217799
674.711315
694.368831
694.925907
675.290027
656.816905
639.547184
623.518683
608.766430
595.322362
583.215546
572.471906
563.114423
555.162947
548.634276
543.542182
539.897348
537.707394
536.976901
537.707395
539.897350
543.542190
548.634286
555.162943
563.114433
572.471922
583.215552
595.322383
608.766429
623.518698
639.547181
656.816917
675.290058
694.925916
696.595997
677.025046
658.613007
641.400390
625.424889
610.721417
597.321804
585.255020
574.546906
565.220365
557.295181
550.788098
545.712843
542.080060
539.897348
539.169271
539.897349
542.080062
545.712850
550.788108
557.295178
565.220375
574.546923
585.255027
597.321825
610.721417
625.424905
641.400388
658.613020
677.025077
696.596006
699.375603
679.912715
661.602341
644.484766
628.597476
613.975191
600.649566
588.649410
578.000422
568.725379
560.843956
554.372803
549.325571
545.712847
543.542187
542.818130
543.542188
545.712849
549.325578
554.372813
560.843952
568.725389
578.000439
588.649417
600.649587
613.975191
628.597492
644.484765
661.602355
679.912747
699.375614
703.258907
683.946992
665.778650
648.793855
633.029801
618.520940
605.298681
593.391611
582.825226
573.622129
565.801842
559.380885
554.372804
550.788105
548.634282
547.915842
548.634283
550.788107
554.372812
559.380896
565.801839
573.622140
582.825244
593.391618
605.298704
618.520942
633.029819
648.793855
665.778664
683.947024
703.258919
708.237760
689.119409
671.133169
654.318613
638.712563
624.349125
611.259394
599.471669
589.011192
579.900338
572.158434
565.801835
560.843951
557.295181
555.162947
554.451707
555.162948
557.295183
560.843959
565.801846
572.158432
579.900350
589.011210
599.471677
611.259417
624.349128
638.712582
654.318614
671.133184
689.119442
708.237773
714.301669
695.419066
677.654614
661.047398
645.633787
631.447465
618.519143
606.876772
596.545284
587.546776
579.900338
573.622122
568.725374
565.220364
563.114422
562.411953
563.114424
565.220367
568.725382
573.622134
579.900336
587.546788
596.545303
606.876782
618.519167
631.447469
645.633807
661.047401
677.654631
695.419101
714.301684
721.437837
702.832668
685.329222
668.966009
653.778865
639.800977
627.062606
615.591292
605.411601
596.545305
589.011213
582.825241
578.000439
574.546927
572.471927
571.779780
572.471929
574.546930
578.000448
582.825253
589.011212
596.545318
605.411620
615.591303
627.062631
639.800982
653.778886
668.966014
685.329241
702.832704
721.437853
729.631074
711.344435
694.140658
678.057593
663.130460
649.391881
636.871599
625.596681
615.591271
606.876772
599.471668
593.391604
588.649405
585.255020
583.215545
582.535247
583.215547
585.255023
588.649414
593.391616
599.471668
606.876785
615.591292
625.596693
636.871625
649.391889
663.130483
678.057600
694.140679
711.344474
729.631092
738.863928
720.936237
704.070152
688.302781
673.668654
660.199750
647.925228
636.871625
627.062612
618.519170
611.259421
605.298703
600.649589
597.321832
595.322390
594.655446
595.322392
597.321835
600.649598
605.298715
611.259422
618.519184
627.062633
636.871638
647.925255
660.199759
673.668679
688.302791
704.070176
720.936278
738.863949
749.116545
731.587448
715.096354
699.679546
685.370785
672.201341
660.199724
649.391881
639.800956
631.447464
624.349124
618.520933
613.975186
610.721416
608.766429
608.114313
608.766431
610.721419
613.975195
618.520946
624.349126
631.447478
639.800978
649.391895
660.199752
672.201352
685.370812
699.679558
715.096381
731.587492
749.116570
760.366826
743.275108
727.195495
712.163362
698.211628
685.370784
673.668628
663.130460
653.778844
645.633786
638.712562
633.029795
628.597471
625.424888
623.518682
622.882837
623.518683
625.424892
628.597480
633.029807
638.712564
645.633801
653.778867
663.130474
673.668658
685.370797
698.211658
712.163378
727.195525
743.275156
760.366855
772.590391
755.973892
740.341357
725.727179
712.163361
699.679545
688.302756
678.057592
668.965990
661.047397
654.318611
648.793848
644.484761
641.400389
639.547182
638.929017
639.547184
641.400392
644.484770
648.793860
654.318613
661.047412
668.966012
678.057607
688.302787
699.679560
712.163393
725.727199
740.341393
755.973946
772.590427
785.760528
769.656049
754.505214
740.341357
727.195494
715.096353
704.070128
694.140657
685.329203
677.654613
671.133167
665.778643
661.602336
658.613006
656.816904
656.217787
656.816906
658.613009
661.602345
665.778656
671.133170
677.654628
685.329225
694.140673
704.070159
715.096369
727.195527
740.341381
754.505255
769.656110
785.760573
799.848426
784.291646
769.656082
755.973927
743.275145
731.587485
720.936252
711.344474
702.832689
695.419106
689.119449
683.947027
679.912752
677.025087
675.290069
674.711327
675.290070
677.025090
679.912761
683.947039
689.119451
695.419121
702.832712
711.344490
720.936283
731.587502
743.275179
755.973954
769.656129
784.291718
799.848489
814.822984
799.848385
785.760528
772.590392
760.366827
749.116547
738.863907
729.631075
721.437821
714.301671
708.237761
703.258904
699.375601
696.595998
694.925908
694.368825
694.925910
696.596001
699.375609
703.258915
708.237764
714.301685
721.437843
729.631091
738.863937
749.116564
760.366861
772.590419
785.760576
799.848470
814.823076
