# vtk DataFile Version 2.0
Unstructured Grid Example
ASCII
DATASET UNSTRUCTURED_GRID

POINTS 961 float
0.1 0.005 0
0.0966667 0.005 0
0.0933333 0.005 0
0.09 0.005 0
0.0866667 0.005 0
0.0833333 0.005 0
0.08 0.005 0
0.0766667 0.005 0
0.0733333 0.005 0
0.07 0.005 0
0.0666667 0.005 0
0.0633333 0.005 0
0.06 0.005 0
0.0566667 0.005 0
0.0533333 0.005 0
0.05 0.005 0
0.0466667 0.005 0
0.0433333 0.005 0
0.04 0.005 0
0.0366667 0.005 0
0.0333333 0.005 0
0.03 0.005 0
0.0266667 0.005 0
0.0233333 0.005 0
0.02 0.005 0
0.0166667 0.005 0
0.0133333 0.005 0
0.01 0.005 0
0.00666667 0.005 0
0.00333333 0.005 0
0 0.005 0
0.1 0.00166667 0
0.0966667 0.00166667 0
0.0933333 0.00166667 0
0.09 0.00166667 0
0.0866667 0.00166667 0
0.0833333 0.00166667 0
0.08 0.00166667 0
0.0766667 0.00166667 0
0.0733333 0.00166667 0
0.07 0.00166667 0
0.0666667 0.00166667 0
0.0633333 0.00166667 0
0.06 0.00166667 0
0.0566667 0.00166667 0
0.0533333 0.00166667 0
0.05 0.00166667 0
0.0466667 0.00166667 0
0.0433333 0.00166667 0
0.04 0.00166667 0
0.0366667 0.00166667 0
0.0333333 0.00166667 0
0.03 0.00166667 0
0.0266667 0.00166667 0
0.0233333 0.00166667 0
0.02 0.00166667 0
0.0166667 0.00166667 0
0.0133333 0.00166667 0
0.01 0.00166667 0
0.00666667 0.00166667 0
0.00333333 0.00166667 0
0 0.00166667 0
0.1 -0.00166667 0
0.0966667 -0.00166667 0
0.0933333 -0.00166667 0
0.09 -0.00166667 0
0.0866667 -0.00166667 0
0.0833333 -0.00166667 0
0.08 -0.00166667 0
0.0766667 -0.00166667 0
0.0733333 -0.00166667 0
0.07 -0.00166667 0
0.0666667 -0.00166667 0
0.0633333 -0.00166667 0
0.06 -0.00166667 0
0.0566667 -0.00166667 0
0.0533333 -0.00166667 0
0.05 -0.00166667 0
0.0466667 -0.00166667 0
0.0433333 -0.00166667 0
0.04 -0.00166667 0
0.0366667 -0.00166667 0
0.0333333 -0.00166667 0
0.03 -0.00166667 0
0.0266667 -0.00166667 0
0.0233333 -0.00166667 0
0.02 -0.00166667 0
0.0166667 -0.00166667 0
0.0133333 -0.00166667 0
0.01 -0.00166667 0
0.00666667 -0.00166667 0
0.00333333 -0.00166667 0
0 -0.00166667 0
0.1 -0.005 0
0.0966667 -0.005 0
0.0933333 -0.005 0
0.09 -0.005 0
0.0866667 -0.005 0
0.0833333 -0.005 0
0.08 -0.005 0
0.0766667 -0.005 0
0.0733333 -0.005 0
0.07 -0.005 0
0.0666667 -0.005 0
0.0633333 -0.005 0
0.06 -0.005 0
0.0566667 -0.005 0
0.0533333 -0.005 0
0.05 -0.005 0
0.0466667 -0.005 0
0.0433333 -0.005 0
0.04 -0.005 0
0.0366667 -0.005 0
0.0333333 -0.005 0
0.03 -0.005 0
0.0266667 -0.005 0
0.0233333 -0.005 0
0.02 -0.005 0
0.0166667 -0.005 0
0.0133333 -0.005 0
0.01 -0.005 0
0.00666667 -0.005 0
0.00333333 -0.005 0
0 -0.005 0
0.1 -0.00833333 0
0.0966667 -0.00833333 0
0.0933333 -0.00833333 0
0.09 -0.00833333 0
0.0866667 -0.00833333 0
0.0833333 -0.00833333 0
0.08 -0.00833333 0
0.0766667 -0.00833333 0
0.0733333 -0.00833333 0
0.07 -0.00833333 0
0.0666667 -0.00833333 0
0.0633333 -0.00833333 0
0.06 -0.00833333 0
0.0566667 -0.00833333 0
0.0533333 -0.00833333 0
0.05 -0.00833333 0
0.0466667 -0.00833333 0
0.0433333 -0.00833333 0
0.04 -0.00833333 0
0.0366667 -0.00833333 0
0.0333333 -0.00833333 0
0.03 -0.00833333 0
0.0266667 -0.00833333 0
0.0233333 -0.00833333 0
0.02 -0.00833333 0
0.0166667 -0.00833333 0
0.0133333 -0.00833333 0
0.01 -0.00833333 0
0.00666667 -0.00833333 0
0.00333333 -0.00833333 0
0 -0.00833333 0
0.1 -0.0116667 0
0.0966667 -0.0116667 0
0.0933333 -0.0116667 0
0.09 -0.0116667 0
0.0866667 -0.0116667 0
0.0833333 -0.0116667 0
0.08 -0.0116667 0
0.0766667 -0.0116667 0
0.0733333 -0.0116667 0
0.07 -0.0116667 0
0.0666667 -0.0116667 0
0.0633333 -0.0116667 0
0.06 -0.0116667 0
0.0566667 -0.0116667 0
0.0533333 -0.0116667 0
0.05 -0.0116667 0
0.0466667 -0.0116667 0
0.0433333 -0.0116667 0
0.04 -0.0116667 0
0.0366667 -0.0116667 0
0.0333333 -0.0116667 0
0.03 -0.0116667 0
0.0266667 -0.0116667 0
0.0233333 -0.0116667 0
0.02 -0.0116667 0
0.0166667 -0.0116667 0
0.0133333 -0.0116667 0
0.01 -0.0116667 0
0.00666667 -0.0116667 0
0.00333333 -0.0116667 0
0 -0.0116667 0
0.1 -0.015 0
0.0966667 -0.015 0
0.0933333 -0.015 0
0.09 -0.015 0
0.0866667 -0.015 0
0.0833333 -0.015 0
0.08 -0.015 0
0.0766667 -0.015 0
0.0733333 -0.015 0
0.07 -0.015 0
0.0666667 -0.015 0
0.0633333 -0.015 0
0.06 -0.015 0
0.0566667 -0.015 0
0.0533333 -0.015 0
0.05 -0.015 0
0.0466667 -0.015 0
0.0433333 -0.015 0
0.04 -0.015 0
0.0366667 -0.015 0
0.0333333 -0.015 0
0.03 -0.015 0
0.0266667 -0.015 0
0.0233333 -0.015 0
0.02 -0.015 0
0.0166667 -0.015 0
0.0133333 -0.015 0
0.01 -0.015 0
0.00666667 -0.015 0
0.00333333 -0.015 0
0 -0.015 0
0.1 -0.0183333 0
0.0966667 -0.0183333 0
0.0933333 -0.0183333 0
0.09 -0.0183333 0
0.0866667 -0.0183333 0
0.0833333 -0.0183333 0
0.08 -0.0183333 0
0.0766667 -0.0183333 0
0.0733333 -0.0183333 0
0.07 -0.0183333 0
0.0666667 -0.0183333 0
0.0633333 -0.0183333 0
0.06 -0.0183333 0
0.0566667 -0.0183333 0
0.0533333 -0.0183333 0
0.05 -0.0183333 0
0.0466667 -0.0183333 0
0.0433333 -0.0183333 0
0.04 -0.0183333 0
0.0366667 -0.0183333 0
0.0333333 -0.0183333 0
0.03 -0.0183333 0
0.0266667 -0.0183333 0
0.0233333 -0.0183333 0
0.02 -0.0183333 0
0.0166667 -0.0183333 0
0.0133333 -0.0183333 0
0.01 -0.0183333 0
0.00666667 -0.0183333 0
0.00333333 -0.0183333 0
0 -0.0183333 0
0.1 -0.0216667 0
0.0966667 -0.0216667 0
0.0933333 -0.0216667 0
0.09 -0.0216667 0
0.0866667 -0.0216667 0
0.0833333 -0.0216667 0
0.08 -0.0216667 0
0.0766667 -0.0216667 0
0.0733333 -0.0216667 0
0.07 -0.0216667 0
0.0666667 -0.0216667 0
0.0633333 -0.0216667 0
0.06 -0.0216667 0
0.0566667 -0.0216667 0
0.0533333 -0.0216667 0
0.05 -0.0216667 0
0.0466667 -0.0216667 0
0.0433333 -0.0216667 0
0.04 -0.0216667 0
0.0366667 -0.0216667 0
0.0333333 -0.0216667 0
0.03 -0.0216667 0
0.0266667 -0.0216667 0
0.0233333 -0.0216667 0
0.02 -0.0216667 0
0.0166667 -0.0216667 0
0.0133333 -0.0216667 0
0.01 -0.0216667 0
0.00666667 -0.0216667 0
0.00333333 -0.0216667 0
0 -0.0216667 0
0.1 -0.025 0
0.0966667 -0.025 0
0.0933333 -0.025 0
0.09 -0.025 0
0.0866667 -0.025 0
0.0833333 -0.025 0
0.08 -0.025 0
0.0766667 -0.025 0
0.0733333 -0.025 0
0.07 -0.025 0
0.0666667 -0.025 0
0.0633333 -0.025 0
0.06 -0.025 0
0.0566667 -0.025 0
0.0533333 -0.025 0
0.05 -0.025 0
0.0466667 -0.025 0
0.0433333 -0.025 0
0.04 -0.025 0
0.0366667 -0.025 0
0.0333333 -0.025 0
0.03 -0.025 0
0.0266667 -0.025 0
0.0233333 -0.025 0
0.02 -0.025 0
0.0166667 -0.025 0
0.0133333 -0.025 0
0.01 -0.025 0
0.00666667 -0.025 0
0.00333333 -0.025 0
0 -0.025 0
0.1 -0.0283333 0
0.0966667 -0.0283333 0
0.0933333 -0.0283333 0
0.09 -0.0283333 0
0.0866667 -0.0283333 0
0.0833333 -0.0283333 0
0.08 -0.0283333 0
0.0766667 -0.0283333 0
0.0733333 -0.0283333 0
0.07 -0.0283333 0
0.0666667 -0.0283333 0
0.0633333 -0.0283333 0
0.06 -0.0283333 0
0.0566667 -0.0283333 0
0.0533333 -0.0283333 0
0.05 -0.0283333 0
0.0466667 -0.0283333 0
0.0433333 -0.0283333 0
0.04 -0.0283333 0
0.0366667 -0.0283333 0
0.0333333 -0.0283333 0
0.03 -0.0283333 0
0.0266667 -0.0283333 0
0.0233333 -0.0283333 0
0.02 -0.0283333 0
0.0166667 -0.0283333 0
0.0133333 -0.0283333 0
0.01 -0.0283333 0
0.00666667 -0.0283333 0
0.00333333 -0.0283333 0
0 -0.0283333 0
0.1 -0.0316667 0
0.0966667 -0.0316667 0
0.0933333 -0.0316667 0
0.09 -0.0316667 0
0.0866667 -0.0316667 0
0.0833333 -0.0316667 0
0.08 -0.0316667 0
0.0766667 -0.0316667 0
0.0733333 -0.0316667 0
0.07 -0.0316667 0
0.0666667 -0.0316667 0
0.0633333 -0.0316667 0
0.06 -0.0316667 0
0.0566667 -0.0316667 0
0.0533333 -0.0316667 0
0.05 -0.0316667 0
0.0466667 -0.0316667 0
0.0433333 -0.0316667 0
0.04 -0.0316667 0
0.0366667 -0.0316667 0
0.0333333 -0.0316667 0
0.03 -0.0316667 0
0.0266667 -0.0316667 0
0.0233333 -0.0316667 0
0.02 -0.0316667 0
0.0166667 -0.0316667 0
0.0133333 -0.0316667 0
0.01 -0.0316667 0
0.00666667 -0.0316667 0
0.00333333 -0.0316667 0
0 -0.0316667 0
0.1 -0.035 0
0.0966667 -0.035 0
0.0933333 -0.035 0
0.09 -0.035 0
0.0866667 -0.035 0
0.0833333 -0.035 0
0.08 -0.035 0
0.0766667 -0.035 0
0.0733333 -0.035 0
0.07 -0.035 0
0.0666667 -0.035 0
0.0633333 -0.035 0
0.06 -0.035 0
0.0566667 -0.035 0
0.0533333 -0.035 0
0.05 -0.035 0
0.0466667 -0.035 0
0.0433333 -0.035 0
0.04 -0.035 0
0.0366667 -0.035 0
0.0333333 -0.035 0
0.03 -0.035 0
0.0266667 -0.035 0
0.0233333 -0.035 0
0.02 -0.035 0
0.0166667 -0.035 0
0.0133333 -0.035 0
0.01 -0.035 0
0.00666667 -0.035 0
0.00333333 -0.035 0
0 -0.035 0
0.1 -0.0383333 0
0.0966667 -0.0383333 0
0.0933333 -0.0383333 0
0.09 -0.0383333 0
0.0866667 -0.0383333 0
0.0833333 -0.0383333 0
0.08 -0.0383333 0
0.0766667 -0.0383333 0
0.0733333 -0.0383333 0
0.07 -0.0383333 0
0.0666667 -0.0383333 0
0.0633333 -0.0383333 0
0.06 -0.0383333 0
0.0566667 -0.0383333 0
0.0533333 -0.0383333 0
0.05 -0.0383333 0
0.0466667 -0.0383333 0
0.0433333 -0.0383333 0
0.04 -0.0383333 0
0.0366667 -0.0383333 0
0.0333333 -0.0383333 0
0.03 -0.0383333 0
0.0266667 -0.0383333 0
0.0233333 -0.0383333 0
0.02 -0.0383333 0
0.0166667 -0.0383333 0
0.0133333 -0.0383333 0
0.01 -0.0383333 0
0.00666667 -0.0383333 0
0.00333333 -0.0383333 0
0 -0.0383333 0
0.1 -0.0416667 0
0.0966667 -0.0416667 0
0.0933333 -0.0416667 0
0.09 -0.0416667 0
0.0866667 -0.0416667 0
0.0833333 -0.0416667 0
0.08 -0.0416667 0
0.0766667 -0.0416667 0
0.0733333 -0.0416667 0
0.07 -0.0416667 0
0.0666667 -0.0416667 0
0.0633333 -0.0416667 0
0.06 -0.0416667 0
0.0566667 -0.0416667 0
0.0533333 -0.0416667 0
0.05 -0.0416667 0
0.0466667 -0.0416667 0
0.0433333 -0.0416667 0
0.04 -0.0416667 0
0.0366667 -0.0416667 0
0.0333333 -0.0416667 0
0.03 -0.0416667 0
0.0266667 -0.0416667 0
0.0233333 -0.0416667 0
0.02 -0.0416667 0
0.0166667 -0.0416667 0
0.0133333 -0.0416667 0
0.01 -0.0416667 0
0.00666667 -0.0416667 0
0.00333333 -0.0416667 0
0 -0.0416667 0
0.1 -0.045 0
0.0966667 -0.045 0
0.0933333 -0.045 0
0.09 -0.045 0
0.0866667 -0.045 0
0.0833333 -0.045 0
0.08 -0.045 0
0.0766667 -0.045 0
0.0733333 -0.045 0
0.07 -0.045 0
0.0666667 -0.045 0
0.0633333 -0.045 0
0.06 -0.045 0
0.0566667 -0.045 0
0.0533333 -0.045 0
0.05 -0.045 0
0.0466667 -0.045 0
0.0433333 -0.045 0
0.04 -0.045 0
0.0366667 -0.045 0
0.0333333 -0.045 0
0.03 -0.045 0
0.0266667 -0.045 0
0.0233333 -0.045 0
0.02 -0.045 0
0.0166667 -0.045 0
0.0133333 -0.045 0
0.01 -0.045 0
0.00666667 -0.045 0
0.00333333 -0.045 0
0 -0.045 0
0.1 -0.0483333 0
0.0966667 -0.0483333 0
0.0933333 -0.0483333 0
0.09 -0.0483333 0
0.0866667 -0.0483333 0
[...]
POINT_DATA 961
SCALARS Temp float 1
LOOKUP_TABLE default
807.751942
792.502718
778.157078
764.746557
752.300482
740.845982
730.407763
721.008284
712.667554
705.403289
699.230773
694.162927
690.210338
687.381209
685.681389
685.114393
685.681390
687.381210
690.210344
694.162935
699.230770
705.403297
712.667568
721.008290
730.407781
740.845984
752.300498
764.746562
778.157098
792.502762
807.751977
792.502741
776.660675
761.757320
747.825445
734.895510
722.995699
712.151679
702.386782
693.721794
686.175120
679.762638
674.497773
670.391521
667.452405
665.686502
665.097463
665.686503
667.452406
670.391527
674.497781
679.762635
686.175128
693.721808
702.386788
712.151698
722.995702
734.895527
747.825450
761.757340
776.660713
792.502764
778.157082
761.757306
746.329286
731.906947
718.521822
706.203086
694.977309
684.868645
675.898612
668.086262
661.448032
655.997821
651.747012
648.704426
646.876355
646.266579
646.876356
648.704427
651.747018
655.997829
661.448029
668.086270
675.898626
684.868651
694.977328
706.203088
718.521839
731.906951
746.329304
761.757340
778.157099
764.746549
747.825417
731.906934
717.026103
703.215459
690.505105
678.922456
668.492434
659.237240
651.176532
644.327270
638.703795
634.317850
631.178540
629.292354
628.663193
629.292354
631.178541
634.317856
638.703803
644.327267
651.176540
659.237254
668.492440
678.922475
690.505106
703.215475
717.026105
731.906950
747.825449
764.746563
752.300487
734.895495
718.521824
703.215475
689.009915
675.936108
664.022253
653.293984
643.774137
635.482933
628.437817
622.653538
618.142177
614.913098
612.972976
612.325824
612.972977
614.913099
618.142183
622.653546
628.437813
635.482942
643.774152
653.293990
664.022272
675.936109
689.009930
703.215475
718.521838
734.895526
752.300499
740.845977
722.995674
706.203078
690.505111
675.936097
662.527793
650.309119
639.306363
629.542948
621.039611
613.814243
607.881971
603.255186
599.943489
597.953729
597.290020
597.953730
599.943490
603.255192
607.881980
613.814239
621.039619
629.542963
639.306369
650.309138
662.527793
675.936112
690.505110
706.203090
722.995704
740.845988
730.407772
712.151668
694.977316
678.922478
664.022258
650.309135
637.812686
626.559798
616.574425
607.877776
600.488150
594.421016
589.689046
586.302063
584.267068
583.588270
584.267069
586.302064
589.689053
594.421024
600.488145
607.877785
616.574440
626.559803
637.812705
650.309134
664.022273
678.922476
694.977328
712.151698
730.407782
721.008285
702.386762
684.868643
668.492446
653.293979
639.306370
626.559788
615.081659
604.896415
596.025691
588.488151
582.299575
577.472889
574.018110
571.942383
571.249997
571.942383
574.018112
577.472895
582.299584
588.488146
596.025699
604.896430
615.081663
626.559807
639.306369
653.293993
668.492444
684.868654
702.386791
721.008294
712.667564
693.721782
675.898618
659.237262
643.774142
629.542965
616.574425
604.896425
594.533825
585.508633
577.839841
571.543502
566.632768
563.117831
561.005959
560.301517
561.005959
563.117833
566.632775
571.543511
577.839836
585.508642
594.533839
604.896430
616.574443
629.542963
643.774156
659.237258
675.898629
693.721811
712.667572
705.403290
686.175098
668.086259
651.176544
635.482928
621.039617
607.877765
596.025690
585.508622
576.348899
568.565793
562.175600
557.191665
553.624333
551.480981
550.766038
551.480981
553.624335
557.191672
562.175609
568.565788
576.348907
585.508637
596.025695
607.877784
621.039615
635.482941
651.176540
668.086269
686.175127
705.403297
699.230767
679.762609
661.448022
644.327276
628.437804
613.814242
600.488130
588.488142
577.839822
568.565785
560.685547
554.215604
549.169470
545.557618
543.387516
542.663651
543.387517
545.557619
549.169477
554.215613
560.685542
568.565794
577.839837
588.488147
600.488149
613.814239
628.437818
644.327272
661.448033
679.762638
699.230774
694.162930
674.497753
655.997820
638.703810
622.653535
607.881980
594.421007
582.299577
571.543494
562.175603
554.215615
547.680195
542.582993
538.934589
536.742525
536.011335
536.742526
538.934590
542.583000
547.680204
554.215610
562.175611
571.543509
582.299581
594.421026
607.881978
622.653548
638.703805
655.997831
674.497782
694.162937
690.210340
670.391500
651.747010
634.317864
618.142173
603.255194
589.689036
577.472890
566.632759
557.191667
549.169480
542.582992
537.445961
533.769048
531.559855
530.822951
531.559856
533.769049
537.445968
542.583002
549.169475
557.191676
566.632774
577.472895
589.689055
603.255191
618.142186
634.317860
651.747020
670.391529
690.210348
687.381207
667.452381
648.704420
631.178550
614.913090
599.943493
586.302049
574.018107
563.117817
553.624331
545.557624
538.934583
533.769043
530.071725
527.850272
527.109278
527.850273
530.071726
533.769050
538.934593
545.557619
553.624340
563.117833
574.018112
586.302068
599.943491
614.913103
631.178546
648.704431
667.452410
687.381215
685.681388
665.686478
646.876350
629.292365
612.972969
597.953734
584.267055
571.942380
561.005945
551.480979
543.387522
536.742520
531.559852
527.850273
525.621454
524.878003
525.621454
527.850274
531.559859
536.742530
543.387518
551.480988
561.005961
571.942385
584.267074
597.953732
612.972983
629.292361
646.876361
665.686507
685.681395
685.114391
665.097439
646.266574
628.663204
612.325817
597.290025
583.588257
571.249995
560.301504
550.766037
542.663658
536.011330
530.822948
527.109280
524.878004
524.133733
524.878004
527.109281
530.822955
536.011340
542.663654
550.766046
560.301520
571.250001
583.588277
597.290023
612.325832
628.663200
646.266586
665.097469
685.114400
685.681387
665.686478
646.876350
629.292364
612.972969
597.953734
584.267055
571.942380
561.005945
551.480979
543.387523
536.742521
531.559852
527.850273
525.621454
524.878003
525.621455
527.850275
531.559859
536.742530
543.387518
551.480988
561.005962
571.942386
584.267075
597.953732
612.972984
629.292361
646.876362
665.686508
685.681396
687.381207
667.452380
648.704420
631.178550
614.913089
599.943493
586.302049
574.018107
563.117817
553.624331
545.557624
538.934584
533.769044
530.071725
527.850273
527.109279
527.850274
530.071727
533.769052
538.934594
545.557620
553.624341
563.117834
574.018114
586.302070
599.943493
614.913105
631.178547
648.704433
667.452412
687.381217
690.210340
670.391500
651.747009
634.317864
618.142173
603.255194
589.689036
577.472890
566.632759
557.191667
549.169480
542.582993
537.445962
533.769049
531.559856
530.822953
531.559857
533.769051
537.445970
542.583003
549.169477
557.191678
566.632776
577.472897
589.689058
603.255194
618.142189
634.317863
651.747023
670.391532
690.210350
694.162929
674.497752
655.997820
638.703809
622.653534
607.881980
594.421007
582.299577
571.543494
562.175603
554.215616
547.680196
542.582995
538.934590
536.742527
536.011337
536.742528
538.934592
542.583003
547.680207
554.215613
562.175614
571.543512
582.299585
594.421029
607.881981
622.653552
638.703809
655.997834
674.497785
694.162941
699.230769
679.762612
661.448025
644.327279
628.437807
613.814245
600.488134
588.488146
577.839826
568.565790
560.685552
554.215609
549.169476
545.557624
543.387522
542.663658
543.387523
545.557626
549.169484
554.215620
560.685550
568.565802
577.839845
588.488155
600.488158
613.814248
628.437826
644.327280
661.448041
679.762646
699.230782
705.403285
686.175093
668.086254
651.176539
635.482923
621.039612
607.877760
596.025686
585.508618
576.348895
568.565790
562.175596
557.191662
553.624331
551.480978
550.766036
551.480979
553.624333
557.191671
562.175608
568.565788
576.348907
585.508637
596.025695
607.877785
621.039616
635.482943
651.176542
668.086271
686.175129
705.403299
712.667566
693.721785
675.898622
659.237265
643.774146
629.542969
616.574430
604.896431
594.533830
585.508639
577.839848
571.543509
566.632776
563.117839
561.005967
560.301526
561.005968
563.117842
566.632785
571.543521
577.839847
585.508652
594.533850
604.896441
616.574455
629.542975
643.774168
659.237270
675.898641
693.721822
712.667583
721.008278
702.386755
684.868635
668.492439
653.293972
639.306363
626.559781
615.081652
604.896409
596.025685
588.488146
582.299570
577.472885
574.018107
571.942379
571.249995
571.942381
574.018110
577.472894
582.299582
588.488145
596.025699
604.896430
615.081664
626.559808
639.306370
653.293996
668.492446
684.868657
702.386794
721.008297
730.407778
712.151674
694.977322
678.922485
664.022266
650.309144
637.812695
626.559808
616.574436
607.877788
600.488162
594.421029
589.689060
586.302077
584.267083
583.588285
584.267085
586.302080
589.689069
594.421041
600.488162
607.877802
616.574458
626.559821
637.812723
650.309153
664.022291
678.922495
694.977347
712.151716
730.407800
740.845973
722.995671
706.203074
690.505108
675.936095
662.527792
650.309118
639.306363
629.542948
621.039612
613.814244
607.881973
603.255188
599.943492
597.953733
597.290024
597.953734
599.943495
603.255197
607.881986
613.814245
621.039626
629.542970
639.306377
650.309146
662.527803
675.936122
690.505121
706.203102
722.995715
740.845999
752.300472
734.895480
718.521809
703.215460
689.009901
675.936095
664.022240
653.293972
643.774125
635.482922
628.437806
622.653527
618.142167
614.913088
612.972967
612.325816
612.972969
614.913092
618.142177
622.653540
628.437808
635.482937
643.774148
653.293987
664.022270
675.936108
689.009930
703.215476
718.521840
734.895529
752.300502
764.746546
747.825414
731.906933
717.026102
703.215460
690.505107
678.922460
668.492438
659.237245
651.176538
644.327277
638.703802
634.317858
631.178548
629.292363
628.663203
629.292365
631.178552
634.317868
638.703815
644.327279
651.176553
659.237268
668.492454
678.922490
690.505122
703.215492
717.026123
731.906969
747.825468
764.746582
778.157065
761.757288
746.329270
731.906932
718.521808
706.203073
694.977297
684.868634
675.898602
668.086252
661.448024
655.997813
651.747004
648.704419
646.876349
646.266573
646.876350
648.704422
651.747013
655.997825
661.448026
668.086268
675.898625
684.868651
694.977329
706.203090
718.521842
731.906956
746.329312
761.757350
778.157110
792.502738
776.660673
761.757322
747.825450
734.895517
722.995708
712.151690
702.386794
693.721807
686.175134
679.762653
674.497788
670.391537
667.452422
665.686520
665.097481
665.686521
667.452426
670.391547
674.497801
679.762655
686.175149
693.721830
702.386810
712.151721
722.995726
734.895552
747.825477
761.757369
776.660746
792.502802
807.751915
792.502696
778.157065
764.746547
752.300474
740.845975
730.407757
721.008280
712.667550
705.403286
699.230770
694.162926
690.210337
687.381208
685.681389
685.114393
685.681390
687.381212
690.210346
694.162938
699.230773
705.403301
712.667572
721.008296
730.407787
740.845992
752.300508
764.746574
778.157113
792.502782
807.752009
