# vtk DataFile Version 2.0
Unstructured Grid Example
ASCII
DATASET UNSTRUCTURED_GRID

POINTS 961 float
0.1 0.005 0
0.0966667 0.005 0
0.0933333 0.005 0
0.09 0.005 0
0.0866667 0.005 0
0.0833333 0.005 0
0.08 0.005 0
0.0766667 0.005 0
0.0733333 0.005 0
0.07 0.005 0
0.0666667 0.005 0
0.0633333 0.005 0
0.06 0.005 0
0.0566667 0.005 0
0.0533333 0.005 0
0.05 0.005 0
0.0466667 0.005 0
0.0433333 0.005 0
0.04 0.005 0
0.0366667 0.005 0
0.0333333 0.005 0
0.03 0.005 0
0.0266667 0.005 0
0.0233333 0.005 0
0.02 0.005 0
0.0166667 0.005 0
0.0133333 0.005 0
0.01 0.005 0
0.00666667 0.005 0
0.00333333 0.005 0
0 0.005 0
0.1 0.00166667 0
0.0966667 0.00166667 0
0.0933333 0.00166667 0
0.09 0.00166667 0
0.0866667 0.00166667 0
0.0833333 0.00166667 0
0.08 0.00166667 0
0.0766667 0.00166667 0
0.0733333 0.00166667 0
0.07 0.00166667 0
0.0666667 0.00166667 0
0.0633333 0.00166667 0
0.06 0.00166667 0
0.0566667 0.00166667 0
0.0533333 0.00166667 0
0.05 0.00166667 0
0.0466667 0.00166667 0
0.0433333 0.00166667 0
0.04 0.00166667 0
0.0366667 0.00166667 0
0.0333333 0.00166667 0
0.03 0.00166667 0
0.0266667 0.00166667 0
0.0233333 0.00166667 0
0.02 0.00166667 0
0.0166667 0.00166667 0
0.0133333 0.00166667 0
0.01 0.00166667 0
0.00666667 0.00166667 0
0.00333333 0.00166667 0
0 0.00166667 0
0.1 -0.00166667 0
0.0966667 -0.00166667 0
0.0933333 -0.00166667 0
0.09 -0.00166667 0
0.0866667 -0.00166667 0
0.0833333 -0.00166667 0
0.08 -0.00166667 0
0.0766667 -0.00166667 0
0.0733333 -0.00166667 0
0.07 -0.00166667 0
0.0666667 -0.00166667 0
0.0633333 -0.00166667 0
0.06 -0.00166667 0
0.0566667 -0.00166667 0
0.0533333 -0.00166667 0
0.05 -0.00166667 0
0.0466667 -0.00166667 0
0.0433333 -0.00166667 0
0.04 -0.00166667 0
0.0366667 -0.00166667 0
0.0333333 -0.00166667 0
0.03 -0.00166667 0
0.0266667 -0.00166667 0
0.0233333 -0.00166667 0
0.02 -0.00166667 0
0.0166667 -0.00166667 0
0.0133333 -0.00166667 0
0.01 -0.00166667 0
0.00666667 -0.00166667 0
0.00333333 -0.00166667 0
0 -0.00166667 0
0.1 -0.005 0
0.0966667 -0.005 0
0.0933333 -0.005 0
0.09 -0.005 0
0.0866667 -0.005 0
0.0833333 -0.005 0
0.08 -0.005 0
0.0766667 -0.005 0
0.0733333 -0.005 0
0.07 -0.005 0
0.0666667 -0.005 0
0.0633333 -0.005 0
0.06 -0.005 0
0.0566667 -0.005 0
0.0533333 -0.005 0
0.05 -0.005 0
0.0466667 -0.005 0
0.0433333 -0.005 0
0.04 -0.005 0
0.0366667 -0.005 0
0.0333333 -0.005 0
0.03 -0.005 0
0.0266667 -0.005 0
0.0233333 -0.005 0
0.02 -0.005 0
0.0166667 -0.005 0
0.0133333 -0.005 0
0.01 -0.005 0
0.00666667 -0.005 0
0.00333333 -0.005 0
0 -0.005 0
0.1 -0.00833333 0
0.0966667 -0.00833333 0
0.0933333 -0.00833333 0
0.09 -0.00833333 0
0.0866667 -0.00833333 0
0.0833333 -0.00833333 0
0.08 -0.00833333 0
0.0766667 -0.00833333 0
0.0733333 -0.00833333 0
0.07 -0.00833333 0
0.0666667 -0.00833333 0
0.0633333 -0.00833333 0
0.06 -0.00833333 0
0.0566667 -0.00833333 0
0.0533333 -0.00833333 0
0.05 -0.00833333 0
0.0466667 -0.00833333 0
0.0433333 -0.00833333 0
0.04 -0.00833333 0
0.0366667 -0.00833333 0
0.0333333 -0.00833333 0
0.03 -0.00833333 0
0.0266667 -0.00833333 0
0.0233333 -0.00833333 0
0.02 -0.00833333 0
0.0166667 -0.00833333 0
0.0133333 -0.00833333 0
0.01 -0.00833333 0
0.00666667 -0.00833333 0
0.00333333 -0.00833333 0
0 -0.00833333 0
0.1 -0.0116667 0
0.0966667 -0.0116667 0
0.0933333 -0.0116667 0
0.09 -0.0116667 0
0.0866667 -0.0116667 0
0.0833333 -0.0116667 0
0.08 -0.0116667 0
0.0766667 -0.0116667 0
0.0733333 -0.0116667 0
0.07 -0.0116667 0
0.0666667 -0.0116667 0
0.0633333 -0.0116667 0
0.06 -0.0116667 0
0.0566667 -0.0116667 0
0.0533333 -0.0116667 0
0.05 -0.0116667 0
0.0466667 -0.0116667 0
0.0433333 -0.0116667 0
0.04 -0.0116667 0
0.0366667 -0.0116667 0
0.0333333 -0.0116667 0
0.03 -0.0116667 0
0.0266667 -0.0116667 0
0.0233333 -0.0116667 0
0.02 -0.0116667 0
0.0166667 -0.0116667 0
0.0133333 -0.0116667 0
0.01 -0.0116667 0
0.00666667 -0.0116667 0
0.00333333 -0.0116667 0
0 -0.0116667 0
0.1 -0.015 0
0.0966667 -0.015 0
0.0933333 -0.015 0
0.09 -0.015 0
0.0866667 -0.015 0
0.0833333 -0.015 0
0.08 -0.015 0
0.0766667 -0.015 0
0.0733333 -0.015 0
0.07 -0.015 0
0.0666667 -0.015 0
0.0633333 -0.015 0
0.06 -0.015 0
0.0566667 -0.015 0
0.0533333 -0.015 0
0.05 -0.015 0
0.0466667 -0.015 0
0.0433333 -0.015 0
0.04 -0.015 0
0.0366667 -0.015 0
0.0333333 -0.015 0
0.03 -0.015 0
0.0266667 -0.015 0
0.0233333 -0.015 0
0.02 -0.015 0
0.0166667 -0.015 0
0.0133333 -0.015 0
0.01 -0.015 0
0.00666667 -0.015 0
0.00333333 -0.015 0
0 -0.015 0
0.1 -0.0183333 0
0.0966667 -0.0183333 0
0.0933333 -0.0183333 0
0.09 -0.0183333 0
0.0866667 -0.0183333 0
0.0833333 -0.0183333 0
0.08 -0.0183333 0
0.0766667 -0.0183333 0
0.0733333 -0.0183333 0
0.07 -0.0183333 0
0.0666667 -0.0183333 0
0.0633333 -0.0183333 0
0.06 -0.0183333 0
0.0566667 -0.0183333 0
0.0533333 -0.0183333 0
0.05 -0.0183333 0
0.0466667 -0.0183333 0
0.0433333 -0.0183333 0
0.04 -0.0183333 0
0.0366667 -0.0183333 0
0.0333333 -0.0183333 0
0.03 -0.0183333 0
0.0266667 -0.0183333 0
0.0233333 -0.0183333 0
0.02 -0.0183333 0
0.0166667 -0.0183333 0
0.0133333 -0.0183333 0
0.01 -0.0183333 0
0.00666667 -0.0183333 0
0.00333333 -0.0183333 0
0 -0.0183333 0
0.1 -0.0216667 0
0.0966667 -0.0216667 0
0.0933333 -0.0216667 0
0.09 -0.0216667 0
0.0866667 -0.0216667 0
0.0833333 -0.0216667 0
0.08 -0.0216667 0
0.0766667 -0.0216667 0
0.0733333 -0.0216667 0
0.07 -0.0216667 0
0.0666667 -0.0216667 0
0.0633333 -0.0216667 0
0.06 -0.0216667 0
0.0566667 -0.0216667 0
0.0533333 -0.0216667 0
0.05 -0.0216667 0
0.0466667 -0.0216667 0
0.0433333 -0.0216667 0
0.04 -0.0216667 0
0.0366667 -0.0216667 0
0.0333333 -0.0216667 0
0.03 -0.0216667 0
0.0266667 -0.0216667 0
0.0233333 -0.0216667 0
0.02 -0.0216667 0
0.0166667 -0.0216667 0
0.0133333 -0.0216667 0
0.01 -0.0216667 0
0.00666667 -0.0216667 0
0.00333333 -0.0216667 0
0 -0.0216667 0
0.1 -0.025 0
0.0966667 -0.025 0
0.0933333 -0.025 0
0.09 -0.025 0
0.0866667 -0.025 0
0.0833333 -0.025 0
0.08 -0.025 0
0.0766667 -0.025 0
0.0733333 -0.025 0
0.07 -0.025 0
0.0666667 -0.025 0
0.0633333 -0.025 0
0.06 -0.025 0
0.0566667 -0.025 0
0.0533333 -0.025 0
0.05 -0.025 0
0.0466667 -0.025 0
0.0433333 -0.025 0
0.04 -0.025 0
0.0366667 -0.025 0
0.0333333 -0.025 0
0.03 -0.025 0
0.0266667 -0.025 0
0.0233333 -0.025 0
0.02 -0.025 0
0.0166667 -0.025 0
0.0133333 -0.025 0
0.01 -0.025 0
0.00666667 -0.025 0
0.00333333 -0.025 0
0 -0.025 0
0.1 -0.0283333 0
0.0966667 -0.0283333 0
0.0933333 -0.0283333 0
0.09 -0.0283333 0
0.0866667 -0.0283333 0
0.0833333 -0.0283333 0
0.08 -0.0283333 0
0.0766667 -0.0283333 0
0.0733333 -0.0283333 0
0.07 -0.0283333 0
0.0666667 -0.0283333 0
0.0633333 -0.0283333 0
0.06 -0.0283333 0
0.0566667 -0.0283333 0
0.0533333 -0.0283333 0
0.05 -0.0283333 0
0.0466667 -0.0283333 0
0.0433333 -0.0283333 0
0.04 -0.0283333 0
0.0366667 -0.0283333 0
0.0333333 -0.0283333 0
0.03 -0.0283333 0
0.0266667 -0.0283333 0
0.0233333 -0.0283333 0
0.02 -0.0283333 0
0.0166667 -0.0283333 0
0.0133333 -0.0283333 0
0.01 -0.0283333 0
0.00666667 -0.0283333 0
0.00333333 -0.0283333 0
0 -0.0283333 0
0.1 -0.0316667 0
0.0966667 -0.0316667 0
0.0933333 -0.0316667 0
0.09 -0.0316667 0
0.0866667 -0.0316667 0
0.0833333 -0.0316667 0
0.08 -0.0316667 0
0.0766667 -0.0316667 0
0.0733333 -0.0316667 0
0.07 -0.0316667 0
0.0666667 -0.0316667 0
0.0633333 -0.0316667 0
0.06 -0.0316667 0
0.0566667 -0.0316667 0
0.0533333 -0.0316667 0
0.05 -0.0316667 0
0.0466667 -0.0316667 0
0.0433333 -0.0316667 0
0.04 -0.0316667 0
0.0366667 -0.0316667 0
0.0333333 -0.0316667 0
0.03 -0.0316667 0
0.0266667 -0.0316667 0
0.0233333 -0.0316667 0
0.02 -0.0316667 0
0.0166667 -0.0316667 0
0.0133333 -0.0316667 0
0.01 -0.0316667 0
0.00666667 -0.0316667 0
0.00333333 -0.0316667 0
0 -0.0316667 0
0.1 -0.035 0
0.0966667 -0.035 0
0.0933333 -0.035 0
0.09 -0.035 0
0.0866667 -0.035 0
0.0833333 -0.035 0
0.08 -0.035 0
0.0766667 -0.035 0
0.0733333 -0.035 0
0.07 -0.035 0
0.0666667 -0.035 0
0.0633333 -0.035 0
0.06 -0.035 0
0.0566667 -0.035 0
0.0533333 -0.035 0
0.05 -0.035 0
0.0466667 -0.035 0
0.0433333 -0.035 0
0.04 -0.035 0
0.0366667 -0.035 0
0.0333333 -0.035 0
0.03 -0.035 0
0.0266667 -0.035 0
0.0233333 -0.035 0
0.02 -0.035 0
0.0166667 -0.035 0
0.0133333 -0.035 0
0.01 -0.035 0
0.00666667 -0.035 0
0.00333333 -0.035 0
0 -0.035 0
0.1 -0.0383333 0
0.0966667 -0.0383333 0
0.0933333 -0.0383333 0
0.09 -0.0383333 0
0.0866667 -0.0383333 0
0.0833333 -0.0383333 0
0.08 -0.0383333 0
0.0766667 -0.0383333 0
0.0733333 -0.0383333 0
0.07 -0.0383333 0
0.0666667 -0.0383333 0
0.0633333 -0.0383333 0
0.06 -0.0383333 0
0.0566667 -0.0383333 0
0.0533333 -0.0383333 0
0.05 -0.0383333 0
0.0466667 -0.0383333 0
0.0433333 -0.0383333 0
0.04 -0.0383333 0
0.0366667 -0.0383333 0
0.0333333 -0.0383333 0
0.03 -0.0383333 0
0.0266667 -0.0383333 0
0.0233333 -0.0383333 0
0.02 -0.0383333 0
0.0166667 -0.0383333 0
0.0133333 -0.0383333 0
0.01 -0.0383333 0
0.00666667 -0.0383333 0
0.00333333 -0.0383333 0
0 -0.0383333 0
0.1 -0.0416667 0
0.0966667 -0.0416667 0
0.0933333 -0.0416667 0
0.09 -0.0416667 0
0.0866667 -0.0416667 0
0.0833333 -0.0416667 0
0.08 -0.0416667 0
0.0766667 -0.0416667 0
0.0733333 -0.0416667 0
0.07 -0.0416667 0
0.0666667 -0.0416667 0
0.0633333 -0.0416667 0
0.06 -0.0416667 0
0.0566667 -0.0416667 0
0.0533333 -0.0416667 0
0.05 -0.0416667 0
0.0466667 -0.0416667 0
0.0433333 -0.0416667 0
0.04 -0.0416667 0
0.0366667 -0.0416667 0
0.0333333 -0.0416667 0
0.03 -0.0416667 0
0.0266667 -0.0416667 0
0.0233333 -0.0416667 0
0.02 -0.0416667 0
0.0166667 -0.0416667 0
0.0133333 -0.0416667 0
0.01 -0.0416667 0
0.00666667 -0.0416667 0
0.00333333 -0.0416667 0
0 -0.0416667 0
0.1 -0.045 0
0.0966667 -0.045 0
0.0933333 -0.045 0
0.09 -0.045 0
0.0866667 -0.045 0
0.0833333 -0.045 0
0.08 -0.045 0
0.0766667 -0.045 0
0.0733333 -0.045 0
0.07 -0.045 0
0.0666667 -0.045 0
0.0633333 -0.045 0
0.06 -0.045 0
0.0566667 -0.045 0
0.0533333 -0.045 0
0.05 -0.045 0
0.0466667 -0.045 0
0.0433333 -0.045 0
0.04 -0.045 0
0.0366667 -0.045 0
0.0333333 -0.045 0
0.03 -0.045 0
0.0266667 -0.045 0
0.0233333 -0.045 0
0.02 -0.045 0
0.0166667 -0.045 0
0.0133333 -0.045 0
0.01 -0.045 0
0.00666667 -0.045 0
0.00333333 -0.045 0
0 -0.045 0
0.1 -0.0483333 0
0.0966667 -0.0483333 0
0.0933333 -0.0483333 0
0.09 -0.0483333 0
0.0866667 -0.0483333 0
[...]
POINT_DATA 961
SCALARS Temp float 1
LOOKUP_TABLE default
887.396137
875.241987
863.805530
853.111985
843.184935
834.046320
825.716242
818.213088
811.553342
805.751684
800.820854
796.771681
793.613072
791.351961
789.993304
789.540087
789.993305
791.351962
793.613077
796.771687
800.820852
805.751690
811.553353
818.213093
825.716257
834.046322
843.184949
853.111989
863.805546
875.242023
887.396165
875.242006
862.615294
850.734177
839.624864
829.311846
819.817919
811.163965
803.369086
796.450406
790.423178
785.300636
781.094029
777.812613
775.463589
774.052107
773.581269
774.052108
775.463590
777.812618
781.094036
785.300634
790.423185
796.450418
803.369091
811.163980
819.817921
829.311860
839.624868
850.734194
862.615325
875.242024
863.805533
850.734166
838.434649
826.934115
816.257921
806.429661
797.470954
789.401576
782.239252
775.999772
770.696838
766.342094
762.945121
760.513375
759.052188
758.564769
759.052188
760.513376
762.945126
766.342101
770.696836
775.999779
782.239264
789.401581
797.470970
806.429663
816.257935
826.934119
838.434664
850.734194
863.805547
853.111978
839.624841
826.934105
815.067766
804.051986
793.911111
784.667449
776.341403
768.951262
762.513319
757.041711
752.548453
749.043430
746.534336
745.026672
744.523749
745.026672
746.534337
749.043435
752.548460
757.041708
762.513326
768.951274
776.341408
784.667465
793.911113
804.051999
815.067768
826.934118
839.624867
853.111990
843.184939
829.311835
816.257923
804.051998
792.720975
782.289895
772.781703
764.217386
756.615759
749.993578
744.365387
739.743543
736.138216
733.557317
732.006508
731.489193
732.006508
733.557319
736.138221
739.743550
744.365384
749.993585
756.615771
764.217391
772.781719
782.289896
792.720988
804.052000
816.257934
829.311860
843.184949
834.046316
819.817899
806.429654
793.911116
782.289886
771.591648
761.839936
753.056272
745.259955
738.468169
732.695830
727.955613
724.257948
721.610948
720.020420
719.489856
720.020420
721.610950
724.257953
727.955620
732.695827
738.468176
745.259967
753.056277
761.839951
771.591649
782.289899
793.911116
806.429665
819.817923
834.046325
825.716250
811.163956
797.470960
784.667467
772.781707
761.839949
751.866261
742.882659
734.908876
727.962492
722.058759
717.210642
713.428808
710.721556
709.094823
708.552182
709.094824
710.721557
713.428814
717.210650
722.058756
727.962499
734.908889
742.882663
751.866277
761.839949
772.781719
784.667466
797.470970
811.163980
825.716258
818.213089
803.369070
789.401574
776.341412
764.217382
753.056278
742.882650
733.718956
725.585325
718.499688
712.477605
707.532300
703.674652
700.913129
699.253785
698.700265
699.253785
700.913130
703.674657
707.532307
712.477602
718.499696
725.585338
733.718960
742.882666
753.056277
764.217394
776.341411
789.401583
803.369094
818.213097
811.553349
796.450397
782.239257
768.951280
756.615762
745.259968
734.908876
725.585333
717.309823
710.100587
703.973457
698.941887
695.016948
692.207254
690.518965
689.955790
690.518966
692.207255
695.016954
698.941895
703.973454
710.100594
717.309835
725.585338
734.908891
745.259967
756.615774
768.951278
782.239267
796.450421
811.553357
805.751684
790.423161
775.999770
762.513329
749.993574
738.468174
727.962483
718.499688
710.100578
702.783668
696.565026
691.458307
687.474747
684.623088
682.909584
682.337998
682.909584
684.623089
687.474752
691.458314
696.565022
702.783675
710.100590
718.499692
727.962498
738.468173
749.993585
762.513327
775.999779
790.423184
805.751691
800.820849
785.300613
770.696830
757.041715
744.365376
732.695829
722.058744
712.477598
703.973441
696.565019
690.268601
685.098013
681.064631
678.177306
676.442371
675.863636
676.442372
678.177308
681.064636
685.098020
690.268598
696.565027
703.973454
712.477603
722.058760
732.695828
744.365388
757.041712
770.696839
785.300637
800.820856
796.771683
781.094013
766.342093
752.548464
739.743540
727.955620
717.210635
707.532301
698.941880
691.458309
685.098022
679.874984
675.800688
672.884076
671.131542
670.546937
671.131543
672.884077
675.800694
679.874992
685.098018
691.458316
698.941893
707.532305
717.210651
727.955619
739.743552
752.548462
766.342102
781.094037
796.771689
793.613073
777.812596
762.945120
749.043441
736.138212
724.257954
713.428800
703.674653
695.016940
687.474748
681.064639
675.800688
671.694477
668.755017
666.988755
666.399571
666.988756
668.755019
671.694482
675.800695
681.064635
687.474756
695.016953
703.674657
713.428816
724.257953
736.138224
749.043438
762.945129
777.812620
793.613080
791.351959
775.463569
760.513371
746.534344
733.557311
721.610951
710.721545
700.913126
692.207242
684.623086
678.177311
672.884071
668.755014
665.799200
664.023110
663.430647
664.023111
665.799201
668.755020
672.884079
678.177307
684.623094
692.207255
700.913130
710.721561
721.610950
733.557323
746.534341
760.513380
775.463593
791.351966
789.993303
774.052087
759.052183
745.026680
732.006501
720.020423
709.094812
699.253782
690.518954
682.909582
676.442376
671.131538
666.988752
664.023111
662.241116
661.646684
662.241117
664.023112
666.988758
671.131546
676.442373
682.909590
690.518967
699.253787
709.094828
720.020422
732.006513
745.026677
759.052193
774.052112
789.993310
789.540086
773.581250
758.564765
744.523758
731.489187
719.489859
708.552171
698.700263
689.955779
682.337996
675.863642
670.546933
666.399568
663.430648
661.646684
661.051594
661.646685
663.430650
666.399574
670.546941
675.863639
682.338004
689.955793
698.700268
708.552188
719.489859
731.489199
744.523756
758.564775
773.581274
789.540093
789.993302
774.052087
759.052183
745.026680
732.006501
720.020423
709.094812
699.253782
690.518954
682.909582
676.442376
671.131538
666.988752
664.023111
662.241117
661.646684
662.241117
664.023112
666.988759
671.131547
676.442373
682.909590
690.518968
699.253788
709.094829
720.020423
732.006514
745.026678
759.052194
774.052113
789.993310
791.351959
775.463568
760.513370
746.534344
733.557311
721.610951
710.721545
700.913126
692.207242
684.623086
678.177311
672.884072
668.755014
665.799200
664.023111
663.430648
664.023112
665.799202
668.755021
672.884080
678.177309
684.623095
692.207257
700.913132
710.721562
721.610952
733.557324
746.534343
760.513381
775.463594
791.351967
793.613073
777.812596
762.945119
749.043441
736.138212
724.257954
713.428800
703.674653
695.016940
687.474748
681.064639
675.800688
671.694477
668.755018
666.988756
666.399572
666.988757
668.755020
671.694484
675.800697
681.064637
687.474757
695.016955
703.674659
713.428818
724.257955
736.138226
749.043441
762.945131
777.812622
793.613082
796.771682
781.094013
766.342093
752.548464
739.743540
727.955620
717.210635
707.532301
698.941880
691.458310
685.098022
679.874985
675.800689
672.884077
671.131543
670.546938
671.131544
672.884079
675.800696
679.874994
685.098020
691.458319
698.941896
707.532308
717.210654
727.955622
739.743555
752.548465
766.342105
781.094040
796.771692
800.820851
785.300615
770.696832
757.041717
744.365379
732.695832
722.058747
712.477602
703.973445
696.565023
690.268605
685.098017
681.064635
678.177311
676.442376
675.863642
676.442377
678.177313
681.064642
685.098026
690.268604
696.565033
703.973461
712.477609
722.058766
732.695835
744.365395
757.041719
770.696846
785.300643
800.820862
805.751680
790.423157
775.999766
762.513325
749.993570
738.468170
727.962479
718.499684
710.100574
702.783665
696.565023
691.458304
687.474744
684.623086
682.909582
682.337996
682.909583
684.623088
687.474751
691.458314
696.565022
702.783675
710.100591
718.499693
727.962499
738.468174
749.993587
762.513328
775.999780
790.423186
805.751693
811.553352
796.450399
782.239260
768.951282
756.615765
745.259971
734.908880
725.585338
717.309827
710.100592
703.973462
698.941893
695.016954
692.207260
690.518972
689.955797
690.518973
692.207263
695.016962
698.941903
703.973462
710.100603
717.309844
725.585347
734.908901
745.259976
756.615784
768.951287
782.239276
796.450430
811.553365
818.213083
803.369064
789.401568
776.341407
764.217376
753.056272
742.882645
733.718951
725.585321
718.499684
712.477601
707.532296
703.674649
700.913126
699.253782
698.700263
699.253783
700.913128
703.674656
707.532306
712.477602
718.499695
725.585338
733.718961
742.882667
753.056279
764.217396
776.341413
789.401586
803.369096
818.213099
825.716254
811.163961
797.470965
784.667472
772.781713
761.839956
751.866269
742.882667
734.908885
727.962501
722.058769
717.210653
713.428819
710.721568
709.094835
708.552194
709.094836
710.721570
713.428827
717.210663
722.058770
727.962513
734.908903
742.882678
751.866292
761.839964
772.781734
784.667481
797.470985
811.163995
825.716272
834.046313
819.817896
806.429651
793.911113
782.289884
771.591647
761.839935
753.056272
745.259955
738.468170
732.695831
727.955615
724.257950
721.610951
720.020423
719.489859
720.020424
721.610954
724.257957
727.955625
732.695833
738.468182
745.259973
753.056284
761.839958
771.591656
782.289907
793.911125
806.429674
819.817932
834.046334
843.184927
829.311823
816.257911
804.051987
792.720964
782.289884
772.781692
764.217376
756.615749
749.993569
744.365378
739.743535
736.138208
733.557310
732.006501
731.489186
732.006502
733.557313
736.138216
739.743545
744.365380
749.993582
756.615768
764.217389
772.781717
782.289895
792.720988
804.052001
816.257936
829.311862
843.184952
853.111976
839.624839
826.934104
815.067765
804.051987
793.911113
784.667452
776.341406
768.951266
762.513324
757.041716
752.548459
749.043437
746.534343
745.026679
744.523757
745.026680
746.534346
749.043444
752.548469
757.041718
762.513337
768.951285
776.341419
784.667477
793.911126
804.052013
815.067782
826.934133
839.624883
853.112005
863.805519
850.734151
838.434636
826.934103
816.257910
806.429651
797.470945
789.401567
782.239244
775.999765
770.696831
766.342087
762.945115
760.513369
759.052182
758.564764
759.052184
760.513372
762.945123
766.342098
770.696833
775.999778
782.239263
789.401581
797.470971
806.429664
816.257938
826.934123
838.434670
850.734202
863.805556
875.242003
862.615292
850.734178
839.624867
829.311852
819.817926
811.163973
803.369096
796.450417
790.423189
785.300648
781.094042
777.812626
775.463602
774.052121
773.581284
774.052123
775.463605
777.812634
781.094052
785.300650
790.423202
796.450435
803.369109
811.163999
819.817940
829.311881
839.624889
850.734217
862.615351
875.242055
887.396115
875.241970
863.805519
853.111976
843.184928
834.046314
825.716238
818.213085
811.553339
805.751681
800.820852
796.771679
793.613071
791.351960
789.993304
789.540087
789.993305
791.351963
793.613078
796.771689
800.820855
805.751694
811.553357
818.213098
825.716262
834.046328
843.184956
853.111999
863.805558
875.242039
887.396190
