# vtk DataFile Version 2.0
Unstructured Grid Example
ASCII
DATASET UNSTRUCTURED_GRID

POINTS 961 float
0.1 0.005 0
0.0966667 0.005 0
0.0933333 0.005 0
0.09 0.005 0
0.0866667 0.005 0
0.0833333 0.005 0
0.08 0.005 0
0.0766667 0.005 0
0.0733333 0.005 0
0.07 0.005 0
0.0666667 0.005 0
0.0633333 0.005 0
0.06 0.005 0
0.0566667 0.005 0
0.0533333 0.005 0
0.05 0.005 0
0.0466667 0.005 0
0.0433333 0.005 0
0.04 0.005 0
0.0366667 0.005 0
0.0333333 0.005 0
0.03 0.005 0
0.0266667 0.005 0
0.0233333 0.005 0
0.02 0.005 0
0.0166667 0.005 0
0.0133333 0.005 0
0.01 0.005 0
0.00666667 0.005 0
0.00333333 0.005 0
0 0.005 0
0.1 0.00166667 0
0.0966667 0.00166667 0
0.0933333 0.00166667 0
0.09 0.00166667 0
0.0866667 0.00166667 0
0.0833333 0.00166667 0
0.08 0.00166667 0
0.0766667 0.00166667 0
0.0733333 0.00166667 0
0.07 0.00166667 0
0.0666667 0.00166667 0
0.0633333 0.00166667 0
0.06 0.00166667 0
0.0566667 0.00166667 0
0.0533333 0.00166667 0
0.05 0.00166667 0
0.0466667 0.00166667 0
0.0433333 0.00166667 0
0.04 0.00166667 0
0.0366667 0.00166667 0
0.0333333 0.00166667 0
0.03 0.00166667 0
0.0266667 0.00166667 0
0.0233333 0.00166667 0
0.02 0.00166667 0
0.0166667 0.00166667 0
0.0133333 0.00166667 0
0.01 0.00166667 0
0.00666667 0.00166667 0
0.00333333 0.00166667 0
0 0.00166667 0
0.1 -0.00166667 0
0.0966667 -0.00166667 0
0.0933333 -0.00166667 0
0.09 -0.00166667 0
0.0866667 -0.00166667 0
0.0833333 -0.00166667 0
0.08 -0.00166667 0
0.0766667 -0.00166667 0
0.0733333 -0.00166667 0
0.07 -0.00166667 0
0.0666667 -0.00166667 0
0.0633333 -0.00166667 0
0.06 -0.00166667 0
0.0566667 -0.00166667 0
0.0533333 -0.00166667 0
0.05 -0.00166667 0
0.0466667 -0.00166667 0
0.0433333 -0.00166667 0
0.04 -0.00166667 0
0.0366667 -0.00166667 0
0.0333333 -0.00166667 0
0.03 -0.00166667 0
0.0266667 -0.00166667 0
0.0233333 -0.00166667 0
0.02 -0.00166667 0
0.0166667 -0.00166667 0
0.0133333 -0.00166667 0
0.01 -0.00166667 0
0.00666667 -0.00166667 0
0.00333333 -0.00166667 0
0 -0.00166667 0
0.1 -0.005 0
0.0966667 -0.005 0
0.0933333 -0.005 0
0.09 -0.005 0
0.0866667 -0.005 0
0.0833333 -0.005 0
0.08 -0.005 0
0.0766667 -0.005 0
0.0733333 -0.005 0
0.07 -0.005 0
0.0666667 -0.005 0
0.0633333 -0.005 0
0.06 -0.005 0
0.0566667 -0.005 0
0.0533333 -0.005 0
0.05 -0.005 0
0.0466667 -0.005 0
0.0433333 -0.005 0
0.04 -0.005 0
0.0366667 -0.005 0
0.0333333 -0.005 0
0.03 -0.005 0
0.0266667 -0.005 0
0.0233333 -0.005 0
0.02 -0.005 0
0.0166667 -0.005 0
0.0133333 -0.005 0
0.01 -0.005 0
0.00666667 -0.005 0
0.00333333 -0.005 0
0 -0.005 0
0.1 -0.00833333 0
0.0966667 -0.00833333 0
0.0933333 -0.00833333 0
0.09 -0.00833333 0
0.0866667 -0.00833333 0
0.0833333 -0.00833333 0
0.08 -0.00833333 0
0.0766667 -0.00833333 0
0.0733333 -0.00833333 0
0.07 -0.00833333 0
0.0666667 -0.00833333 0
0.0633333 -0.00833333 0
0.06 -0.00833333 0
0.0566667 -0.00833333 0
0.0533333 -0.00833333 0
0.05 -0.00833333 0
0.0466667 -0.00833333 0
0.0433333 -0.00833333 0
0.04 -0.00833333 0
0.0366667 -0.00833333 0
0.0333333 -0.00833333 0
0.03 -0.00833333 0
0.0266667 -0.00833333 0
0.0233333 -0.00833333 0
0.02 -0.00833333 0
0.0166667 -0.00833333 0
0.0133333 -0.00833333 0
0.01 -0.00833333 0
0.00666667 -0.00833333 0
0.00333333 -0.00833333 0
0 -0.00833333 0
0.1 -0.0116667 0
0.0966667 -0.0116667 0
0.0933333 -0.0116667 0
0.09 -0.0116667 0
0.0866667 -0.0116667 0
0.0833333 -0.0116667 0
0.08 -0.0116667 0
0.0766667 -0.0116667 0
0.0733333 -0.0116667 0
0.07 -0.0116667 0
0.0666667 -0.0116667 0
0.0633333 -0.0116667 0
0.06 -0.0116667 0
0.0566667 -0.0116667 0
0.0533333 -0.0116667 0
0.05 -0.0116667 0
0.0466667 -0.0116667 0
0.0433333 -0.0116667 0
0.04 -0.0116667 0
0.0366667 -0.0116667 0
0.0333333 -0.0116667 0
0.03 -0.0116667 0
0.0266667 -0.0116667 0
0.0233333 -0.0116667 0
0.02 -0.0116667 0
0.0166667 -0.0116667 0
0.0133333 -0.0116667 0
0.01 -0.0116667 0
0.00666667 -0.0116667 0
0.00333333 -0.0116667 0
0 -0.0116667 0
0.1 -0.015 0
0.0966667 -0.015 0
0.0933333 -0.015 0
0.09 -0.015 0
0.0866667 -0.015 0
0.0833333 -0.015 0
0.08 -0.015 0
0.0766667 -0.015 0
0.0733333 -0.015 0
0.07 -0.015 0
0.0666667 -0.015 0
0.0633333 -0.015 0
0.06 -0.015 0
0.0566667 -0.015 0
0.0533333 -0.015 0
0.05 -0.015 0
0.0466667 -0.015 0
0.0433333 -0.015 0
0.04 -0.015 0
0.0366667 -0.015 0
0.0333333 -0.015 0
0.03 -0.015 0
0.0266667 -0.015 0
0.0233333 -0.015 0
0.02 -0.015 0
0.0166667 -0.015 0
0.0133333 -0.015 0
0.01 -0.015 0
0.00666667 -0.015 0
0.00333333 -0.015 0
0 -0.015 0
0.1 -0.0183333 0
0.0966667 -0.0183333 0
0.0933333 -0.0183333 0
0.09 -0.0183333 0
0.0866667 -0.0183333 0
0.0833333 -0.0183333 0
0.08 -0.0183333 0
0.0766667 -0.0183333 0
0.0733333 -0.0183333 0
0.07 -0.0183333 0
0.0666667 -0.0183333 0
0.0633333 -0.0183333 0
0.06 -0.0183333 0
0.0566667 -0.0183333 0
0.0533333 -0.0183333 0
0.05 -0.0183333 0
0.0466667 -0.0183333 0
0.0433333 -0.0183333 0
0.04 -0.0183333 0
0.0366667 -0.0183333 0
0.0333333 -0.0183333 0
0.03 -0.0183333 0
0.0266667 -0.0183333 0
0.0233333 -0.0183333 0
0.02 -0.0183333 0
0.0166667 -0.0183333 0
0.0133333 -0.0183333 0
0.01 -0.0183333 0
0.00666667 -0.0183333 0
0.00333333 -0.0183333 0
0 -0.0183333 0
0.1 -0.0216667 0
0.0966667 -0.0216667 0
0.0933333 -0.0216667 0
0.09 -0.0216667 0
0.0866667 -0.0216667 0
0.0833333 -0.0216667 0
0.08 -0.0216667 0
0.0766667 -0.0216667 0
0.0733333 -0.0216667 0
0.07 -0.0216667 0
0.0666667 -0.0216667 0
0.0633333 -0.0216667 0
0.06 -0.0216667 0
0.0566667 -0.0216667 0
0.0533333 -0.0216667 0
0.05 -0.0216667 0
0.0466667 -0.0216667 0
0.0433333 -0.0216667 0
0.04 -0.0216667 0
0.0366667 -0.0216667 0
0.0333333 -0.0216667 0
0.03 -0.0216667 0
0.0266667 -0.0216667 0
0.0233333 -0.0216667 0
0.02 -0.0216667 0
0.0166667 -0.0216667 0
0.0133333 -0.0216667 0
0.01 -0.0216667 0
0.00666667 -0.0216667 0
0.00333333 -0.0216667 0
0 -0.0216667 0
0.1 -0.025 0
0.0966667 -0.025 0
0.0933333 -0.025 0
0.09 -0.025 0
0.0866667 -0.025 0
0.0833333 -0.025 0
0.08 -0.025 0
0.0766667 -0.025 0
0.0733333 -0.025 0
0.07 -0.025 0
0.0666667 -0.025 0
0.0633333 -0.025 0
0.06 -0.025 0
0.0566667 -0.025 0
0.0533333 -0.025 0
0.05 -0.025 0
0.0466667 -0.025 0
0.0433333 -0.025 0
0.04 -0.025 0
0.0366667 -0.025 0
0.0333333 -0.025 0
0.03 -0.025 0
0.0266667 -0.025 0
0.0233333 -0.025 0
0.02 -0.025 0
0.0166667 -0.025 0
0.0133333 -0.025 0
0.01 -0.025 0
0.00666667 -0.025 0
0.00333333 -0.025 0
0 -0.025 0
0.1 -0.0283333 0
0.0966667 -0.0283333 0
0.0933333 -0.0283333 0
0.09 -0.0283333 0
0.0866667 -0.0283333 0
0.0833333 -0.0283333 0
0.08 -0.0283333 0
0.0766667 -0.0283333 0
0.0733333 -0.0283333 0
0.07 -0.0283333 0
0.0666667 -0.0283333 0
0.0633333 -0.0283333 0
0.06 -0.0283333 0
0.0566667 -0.0283333 0
0.0533333 -0.0283333 0
0.05 -0.0283333 0
0.0466667 -0.0283333 0
0.0433333 -0.0283333 0
0.04 -0.0283333 0
0.0366667 -0.0283333 0
0.0333333 -0.0283333 0
0.03 -0.0283333 0
0.0266667 -0.0283333 0
0.0233333 -0.0283333 0
0.02 -0.0283333 0
0.0166667 -0.0283333 0
0.0133333 -0.0283333 0
0.01 -0.0283333 0
0.00666667 -0.0283333 0
0.00333333 -0.0283333 0
0 -0.0283333 0
0.1 -0.0316667 0
0.0966667 -0.0316667 0
0.0933333 -0.0316667 0
0.09 -0.0316667 0
0.0866667 -0.0316667 0
0.0833333 -0.0316667 0
0.08 -0.0316667 0
0.0766667 -0.0316667 0
0.0733333 -0.0316667 0
0.07 -0.0316667 0
0.0666667 -0.0316667 0
0.0633333 -0.0316667 0
0.06 -0.0316667 0
0.0566667 -0.0316667 0
0.0533333 -0.0316667 0
0.05 -0.0316667 0
0.0466667 -0.0316667 0
0.0433333 -0.0316667 0
0.04 -0.0316667 0
0.0366667 -0.0316667 0
0.0333333 -0.0316667 0
0.03 -0.0316667 0
0.0266667 -0.0316667 0
0.0233333 -0.0316667 0
0.02 -0.0316667 0
0.0166667 -0.0316667 0
0.0133333 -0.0316667 0
0.01 -0.0316667 0
0.00666667 -0.0316667 0
0.00333333 -0.0316667 0
0 -0.0316667 0
0.1 -0.035 0
0.0966667 -0.035 0
0.0933333 -0.035 0
0.09 -0.035 0
0.0866667 -0.035 0
0.0833333 -0.035 0
0.08 -0.035 0
0.0766667 -0.035 0
0.0733333 -0.035 0
0.07 -0.035 0
0.0666667 -0.035 0
0.0633333 -0.035 0
0.06 -0.035 0
0.0566667 -0.035 0
0.0533333 -0.035 0
0.05 -0.035 0
0.0466667 -0.035 0
0.0433333 -0.035 0
0.04 -0.035 0
0.0366667 -0.035 0
0.0333333 -0.035 0
0.03 -0.035 0
0.0266667 -0.035 0
0.0233333 -0.035 0
0.02 -0.035 0
0.0166667 -0.035 0
0.0133333 -0.035 0
0.01 -0.035 0
0.00666667 -0.035 0
0.00333333 -0.035 0
0 -0.035 0
0.1 -0.0383333 0
0.0966667 -0.0383333 0
0.0933333 -0.0383333 0
0.09 -0.0383333 0
0.0866667 -0.0383333 0
0.0833333 -0.0383333 0
0.08 -0.0383333 0
0.0766667 -0.0383333 0
0.0733333 -0.0383333 0
0.07 -0.0383333 0
0.0666667 -0.0383333 0
0.0633333 -0.0383333 0
0.06 -0.0383333 0
0.0566667 -0.0383333 0
0.0533333 -0.0383333 0
0.05 -0.0383333 0
0.0466667 -0.0383333 0
0.0433333 -0.0383333 0
0.04 -0.0383333 0
0.0366667 -0.0383333 0
0.0333333 -0.0383333 0
0.03 -0.0383333 0
0.0266667 -0.0383333 0
0.0233333 -0.0383333 0
0.02 -0.0383333 0
0.0166667 -0.0383333 0
0.0133333 -0.0383333 0
0.01 -0.0383333 0
0.00666667 -0.0383333 0
0.00333333 -0.0383333 0
0 -0.0383333 0
0.1 -0.0416667 0
0.0966667 -0.0416667 0
0.0933333 -0.0416667 0
0.09 -0.0416667 0
0.0866667 -0.0416667 0
0.0833333 -0.0416667 0
0.08 -0.0416667 0
0.0766667 -0.0416667 0
0.0733333 -0.0416667 0
0.07 -0.0416667 0
0.0666667 -0.0416667 0
0.0633333 -0.0416667 0
0.06 -0.0416667 0
0.0566667 -0.0416667 0
0.0533333 -0.0416667 0
0.05 -0.0416667 0
0.0466667 -0.0416667 0
0.0433333 -0.0416667 0
0.04 -0.0416667 0
0.0366667 -0.0416667 0
0.0333333 -0.0416667 0
0.03 -0.0416667 0
0.0266667 -0.0416667 0
0.0233333 -0.0416667 0
0.02 -0.0416667 0
0.0166667 -0.0416667 0
0.0133333 -0.0416667 0
0.01 -0.0416667 0
0.00666667 -0.0416667 0
0.00333333 -0.0416667 0
0 -0.0416667 0
0.1 -0.045 0
0.0966667 -0.045 0
0.0933333 -0.045 0
0.09 -0.045 0
0.0866667 -0.045 0
0.0833333 -0.045 0
0.08 -0.045 0
0.0766667 -0.045 0
0.0733333 -0.045 0
0.07 -0.045 0
0.0666667 -0.045 0
0.0633333 -0.045 0
0.06 -0.045 0
0.0566667 -0.045 0
0.0533333 -0.045 0
0.05 -0.045 0
0.0466667 -0.045 0
0.0433333 -0.045 0
0.04 -0.045 0
0.0366667 -0.045 0
0.0333333 -0.045 0
0.03 -0.045 0
0.0266667 -0.045 0
0.0233333 -0.045 0
0.02 -0.045 0
0.0166667 -0.045 0
0.0133333 -0.045 0
0.01 -0.045 0
0.00666667 -0.045 0
0.00333333 -0.045 0
0 -0.045 0
0.1 -0.0483333 0
0.0966667 -0.0483333 0
0.0933333 -0.0483333 0
0.09 -0.0483333 0
0.0866667 -0.0483333 0
[...]
POINT_DATA 961
SCALARS Temp float 1
LOOKUP_TABLE default
634.304884
612.396755
591.960106
573.034139
555.646560
539.814291
525.544232
512.834906
501.677825
492.059525
483.963270
477.371033
472.265302
468.630614
466.454908
465.730546
466.454909
468.630615
472.265308
477.371041
483.963264
492.059533
501.677841
512.834911
525.544254
539.814291
555.646580
573.034143
591.960131
612.396815
634.304930
612.396789
589.640194
568.412058
548.753111
530.692125
514.246677
499.423937
486.222370
474.633162
464.642329
456.232489
449.384918
444.081428
440.305958
438.045980
437.293561
438.045981
440.305959
444.081435
449.384927
456.232484
464.642338
474.633179
486.222375
499.423959
514.246678
530.692146
548.753115
568.412082
589.640245
612.396817
591.960112
568.412036
546.445555
526.102820
507.413604
490.396099
475.057726
461.396903
449.404514
439.066092
430.363657
423.277837
417.789816
413.882978
411.544364
410.765764
411.544365
413.882979
417.789823
423.277846
430.363651
439.066101
449.404531
461.396909
475.057749
490.396099
507.413624
526.102821
546.445576
568.412082
591.960133
573.034127
548.753071
526.102802
505.126786
485.855728
468.308388
452.492425
438.406216
426.040367
415.379970
406.406493
399.099970
393.441004
389.412469
387.001005
386.198150
387.001005
389.412470
393.441011
399.099979
406.406487
415.379979
426.040384
438.406221
452.492448
468.308386
485.855747
505.126785
526.102820
548.753113
573.034143
555.646567
530.692104
507.413607
485.855750
466.050092
448.015922
431.761118
417.284022
404.574989
393.618710
384.396148
376.886794
371.070724
366.930342
364.451924
363.626779
364.451925
366.930343
371.070731
376.886804
384.396141
393.618719
404.575006
417.284026
431.761141
448.015919
466.050110
485.855747
507.413623
530.692145
555.646581
539.814285
514.246642
490.396088
468.308396
448.015907
429.538390
412.883928
398.050831
385.029234
373.803460
364.354021
356.659915
350.700739
346.458474
343.919067
343.073616
343.919068
346.458475
350.700746
356.659925
364.354014
373.803469
385.029251
398.050835
412.883950
429.538386
448.015924
468.308391
490.396102
514.246681
539.814296
525.544245
499.423921
475.057735
452.492455
431.761125
412.883950
395.869200
380.715160
367.411766
355.943018
346.289021
338.428332
332.340121
328.005990
325.411588
324.547826
325.411589
328.005990
332.340128
338.428342
346.289013
355.943027
367.411783
380.715164
395.869222
412.883946
431.761141
452.492449
475.057748
499.423958
525.544255
512.834908
486.222341
461.396900
438.406233
417.284015
398.050841
380.715146
365.275200
351.720762
340.035549
330.199305
322.190198
315.987020
311.571035
308.927632
308.047556
308.927633
311.571035
315.987027
322.190208
330.199297
340.035558
351.720779
365.275203
380.715168
398.050835
417.284030
438.406225
461.396911
486.222378
512.834916
501.677838
474.633145
449.404523
426.040397
404.574996
385.029256
367.411765
351.720776
337.945899
326.070602
316.074316
307.934872
301.630728
297.142858
294.456421
293.562017
294.456422
297.142859
301.630735
307.934882
316.074308
326.070610
337.945916
351.720779
367.411787
385.029250
404.575010
426.040388
449.404533
474.633181
501.677845
492.059526
464.642299
439.066088
415.379988
393.618703
373.803470
355.943003
340.035549
326.070587
314.031375
303.897077
295.645232
289.254015
284.704150
281.980599
281.073837
281.980599
284.704150
289.254022
295.645241
303.897068
314.031384
326.070604
340.035551
355.943025
373.803462
393.618717
415.379978
439.066098
464.642335
492.059532
483.963263
456.232451
430.363644
406.406502
384.396132
364.354021
346.288996
330.199294
316.074291
303.897067
293.646561
285.300071
278.835536
274.233466
271.478663
270.561495
271.478663
274.233467
278.835543
285.300081
293.646552
303.897075
316.074308
330.199296
346.289017
364.354013
384.396145
406.406491
430.363653
456.232486
483.963269
477.371037
449.384891
423.277836
399.099991
376.886790
356.659928
338.428321
322.190201
307.934861
295.645236
285.300086
276.876511
270.352258
265.707669
262.927411
262.001768
262.927411
265.707670
270.352265
276.876521
285.300076
295.645244
307.934877
322.190204
338.428342
356.659920
376.886804
399.099980
423.277845
449.384927
477.371042
472.265305
444.081400
417.789815
393.441025
371.070719
350.700751
332.340109
315.987022
301.630716
289.254018
278.835549
270.352257
263.781741
259.104211
256.304232
255.372023
256.304232
259.104212
263.781748
270.352267
278.835540
289.254026
301.630732
315.987024
332.340130
350.700743
371.070733
393.441013
417.789824
444.081435
472.265310
468.630613
440.305924
413.882972
389.412484
366.930332
346.458481
328.005972
311.571032
297.142840
284.704147
274.233474
265.707663
259.104206
254.403221
251.589199
250.652315
251.589200
254.403222
259.104213
265.707673
274.233465
284.704155
297.142857
311.571034
328.005993
346.458473
366.930346
389.412473
413.882981
440.305960
468.630618
466.454908
438.045947
411.544358
387.001021
364.451915
343.919075
325.411571
308.927630
294.456405
281.980598
271.478672
262.927405
256.304227
251.589200
248.766772
247.827088
248.766772
251.589201
256.304235
262.927415
271.478663
281.980606
294.456422
308.927633
325.411593
343.919067
364.451929
387.001010
411.544368
438.045984
466.454914
465.730546
437.293529
410.765759
386.198167
363.626770
343.073624
324.547810
308.047555
293.562001
281.073837
270.561506
262.001763
255.372019
250.652317
247.827089
246.886474
247.827090
250.652318
255.372027
262.001773
270.561497
281.073845
293.562018
308.047557
324.547832
343.073617
363.626785
386.198157
410.765769
437.293565
465.730552
466.454908
438.045947
411.544358
387.001021
364.451915
343.919075
325.411571
308.927630
294.456405
281.980598
271.478672
262.927405
256.304228
251.589201
248.766772
247.827089
248.766773
251.589202
256.304235
262.927416
271.478664
281.980607
294.456423
308.927634
325.411594
343.919068
364.451930
387.001011
411.544369
438.045985
466.454915
468.630612
440.305924
413.882972
389.412484
366.930332
346.458481
328.005972
311.571032
297.142841
284.704148
274.233475
265.707663
259.104207
254.403222
251.589200
250.652316
251.589201
254.403223
259.104215
265.707674
274.233467
284.704157
297.142859
311.571036
328.005995
346.458475
366.930348
389.412475
413.882983
440.305962
468.630620
472.265305
444.081399
417.789814
393.441024
371.070719
350.700751
332.340109
315.987022
301.630716
289.254019
278.835550
270.352258
263.781742
259.104213
256.304233
255.372024
256.304234
259.104214
263.781750
270.352269
278.835542
289.254029
301.630735
315.987027
332.340133
350.700746
371.070736
393.441017
417.789827
444.081439
472.265314
477.371036
449.384890
423.277836
399.099990
376.886790
356.659928
338.428321
322.190202
307.934861
295.645236
285.300087
276.876512
270.352260
265.707671
262.927413
262.001770
262.927414
265.707673
270.352268
276.876524
285.300080
295.645247
307.934881
322.190208
338.428346
356.659924
376.886809
399.099984
423.277850
449.384931
477.371047
483.963266
456.232454
430.363648
406.406506
384.396136
364.354026
346.289001
330.199300
316.074297
303.897073
293.646568
285.300078
278.835543
274.233474
271.478671
270.561504
271.478672
274.233476
278.835552
285.300090
293.646562
303.897085
316.074318
330.199307
346.289028
364.354024
384.396156
406.406502
430.363664
456.232496
483.963278
492.059520
464.642293
439.066082
415.379982
393.618697
373.803463
355.942997
340.035543
326.070582
314.031371
303.897072
295.645227
289.254011
284.704146
281.980596
281.073834
281.980597
284.704148
289.254020
295.645240
303.897067
314.031383
326.070604
340.035551
355.943025
373.803463
393.618718
415.379980
439.066100
464.642337
492.059534
501.677842
474.633149
449.404527
426.040403
404.575001
385.029263
367.411772
351.720784
337.945907
326.070611
316.074325
307.934882
301.630738
297.142869
294.456432
293.562028
294.456434
297.142871
301.630748
307.934894
316.074321
326.070624
337.945930
351.720793
367.411801
385.029265
404.575025
426.040403
449.404548
474.633196
501.677859
512.834899
486.222332
461.396891
438.406224
417.284006
398.050832
380.715138
365.275192
351.720755
340.035542
330.199298
322.190192
315.987014
311.571030
308.927628
308.047552
308.927629
311.571032
315.987024
322.190206
330.199295
340.035557
351.720779
365.275203
380.715169
398.050837
417.284033
438.406228
461.396915
486.222381
512.834919
525.544253
499.423929
475.057745
452.492465
431.761136
412.883963
395.869213
380.715174
367.411781
355.943034
346.289038
338.428350
332.340140
328.006009
325.411608
324.547847
325.411609
328.006011
332.340150
338.428364
346.289035
355.943049
367.411806
380.715187
395.869246
412.883970
431.761166
452.492473
475.057773
499.423982
525.544278
539.814280
514.246638
490.396084
468.308392
448.015904
429.538388
412.883927
398.050831
385.029235
373.803462
364.354024
356.659918
350.700743
346.458479
343.919072
343.073621
343.919074
346.458482
350.700753
356.659932
364.354022
373.803478
385.029260
398.050846
412.883961
429.538398
448.015937
468.308405
490.396116
514.246695
539.814310
555.646548
530.692084
507.413587
485.855730
466.050073
448.015904
431.761101
417.284005
404.574974
393.618695
384.396134
376.886780
371.070711
366.930329
364.451912
363.626767
364.451914
366.930332
371.070721
376.886795
384.396133
393.618712
404.575000
417.284021
431.761137
448.015917
466.050109
485.855748
507.413625
530.692148
555.646584
573.034124
548.753068
526.102800
505.126786
485.855730
468.308392
452.492431
438.406223
426.040375
415.379979
406.406503
399.099980
393.441016
389.412481
387.001018
386.198164
387.001019
389.412484
393.441026
399.099995
406.406503
415.379996
426.040402
438.406240
452.492468
468.308407
485.855769
505.126809
526.102846
548.753140
573.034170
591.960087
568.412012
546.445532
526.102799
507.413586
490.396082
475.057710
461.396889
449.404500
439.066079
430.363645
423.277825
417.789806
413.882968
411.544355
410.765755
411.544356
413.882972
417.789816
423.277840
430.363645
439.066097
449.404528
461.396907
475.057749
490.396100
507.413628
526.102828
546.445586
568.412096
591.960147
612.396785
589.640192
568.412061
548.753119
530.692137
514.246691
499.423953
486.222388
474.633182
464.642350
456.232511
449.384941
444.081452
440.305982
438.046005
437.293587
438.046007
440.305985
444.081462
449.384955
456.232512
464.642367
474.633209
486.222406
499.423991
514.246711
530.692180
548.753152
568.412123
589.640291
612.396871
634.304845
612.396725
591.960087
573.034125
555.646549
539.814282
525.544225
512.834900
501.677821
492.059521
483.963267
477.371030
472.265300
468.630613
466.454908
465.730546
466.454910
468.630616
472.265310
477.371044
483.963268
492.059538
501.677847
512.834918
525.544262
539.814301
555.646593
573.034158
591.960151
612.396843
634.304974
