# vtk DataFile Version 2.0
Unstructured Grid Example
ASCII
DATASET UNSTRUCTURED_GRID

POINTS 961 float
0.1 0.005 0
0.0966667 0.005 0
0.0933333 0.005 0
0.09 0.005 0
0.0866667 0.005 0
0.0833333 0.005 0
0.08 0.005 0
0.0766667 0.005 0
0.0733333 0.005 0
0.07 0.005 0
0.0666667 0.005 0
0.0633333 0.005 0
0.06 0.005 0
0.0566667 0.005 0
0.0533333 0.005 0
0.05 0.005 0
0.0466667 0.005 0
0.0433333 0.005 0
0.04 0.005 0
0.0366667 0.005 0
0.0333333 0.005 0
0.03 0.005 0
0.0266667 0.005 0
0.0233333 0.005 0
0.02 0.005 0
0.0166667 0.005 0
0.0133333 0.005 0
0.01 0.005 0
0.00666667 0.005 0
0.00333333 0.005 0
0 0.005 0
0.1 0.00166667 0
0.0966667 0.00166667 0
0.0933333 0.00166667 0
0.09 0.00166667 0
0.0866667 0.00166667 0
0.0833333 0.00166667 0
0.08 0.00166667 0
0.0766667 0.00166667 0
0.0733333 0.00166667 0
0.07 0.00166667 0
0.0666667 0.00166667 0
0.0633333 0.00166667 0
0.06 0.00166667 0
0.0566667 0.00166667 0
0.0533333 0.00166667 0
0.05 0.00166667 0
0.0466667 0.00166667 0
0.0433333 0.00166667 0
0.04 0.00166667 0
0.0366667 0.00166667 0
0.0333333 0.00166667 0
0.03 0.00166667 0
0.0266667 0.00166667 0
0.0233333 0.00166667 0
0.02 0.00166667 0
0.0166667 0.00166667 0
0.0133333 0.00166667 0
0.01 0.00166667 0
0.00666667 0.00166667 0
0.00333333 0.00166667 0
0 0.00166667 0
0.1 -0.00166667 0
0.0966667 -0.00166667 0
0.0933333 -0.00166667 0
0.09 -0.00166667 0
0.0866667 -0.00166667 0
0.0833333 -0.00166667 0
0.08 -0.00166667 0
0.0766667 -0.00166667 0
0.0733333 -0.00166667 0
0.07 -0.00166667 0
0.0666667 -0.00166667 0
0.0633333 -0.00166667 0
0.06 -0.00166667 0
0.0566667 -0.00166667 0
0.0533333 -0.00166667 0
0.05 -0.00166667 0
0.0466667 -0.00166667 0
0.0433333 -0.00166667 0
0.04 -0.00166667 0
0.0366667 -0.00166667 0
0.0333333 -0.00166667 0
0.03 -0.00166667 0
0.0266667 -0.00166667 0
0.0233333 -0.00166667 0
0.02 -0.00166667 0
0.0166667 -0.00166667 0
0.0133333 -0.00166667 0
0.01 -0.00166667 0
0.00666667 -0.00166667 0
0.00333333 -0.00166667 0
0 -0.00166667 0
0.1 -0.005 0
0.0966667 -0.005 0
0.0933333 -0.005 0
0.09 -0.005 0
0.0866667 -0.005 0
0.0833333 -0.005 0
0.08 -0.005 0
0.0766667 -0.005 0
0.0733333 -0.005 0
0.07 -0.005 0
0.0666667 -0.005 0
0.0633333 -0.005 0
0.06 -0.005 0
0.0566667 -0.005 0
0.0533333 -0.005 0
0.05 -0.005 0
0.0466667 -0.005 0
0.0433333 -0.005 0
0.04 -0.005 0
0.0366667 -0.005 0
0.0333333 -0.005 0
0.03 -0.005 0
0.0266667 -0.005 0
0.0233333 -0.005 0
0.02 -0.005 0
0.0166667 -0.005 0
0.0133333 -0.005 0
0.01 -0.005 0
0.00666667 -0.005 0
0.00333333 -0.005 0
0 -0.005 0
0.1 -0.00833333 0
0.0966667 -0.00833333 0
0.0933333 -0.00833333 0
0.09 -0.00833333 0
0.0866667 -0.00833333 0
0.0833333 -0.00833333 0
0.08 -0.00833333 0
0.0766667 -0.00833333 0
0.0733333 -0.00833333 0
0.07 -0.00833333 0
0.0666667 -0.00833333 0
0.0633333 -0.00833333 0
0.06 -0.00833333 0
0.0566667 -0.00833333 0
0.0533333 -0.00833333 0
0.05 -0.00833333 0
0.0466667 -0.00833333 0
0.0433333 -0.00833333 0
0.04 -0.00833333 0
0.0366667 -0.00833333 0
0.0333333 -0.00833333 0
0.03 -0.00833333 0
0.0266667 -0.00833333 0
0.0233333 -0.00833333 0
0.02 -0.00833333 0
0.0166667 -0.00833333 0
0.0133333 -0.00833333 0
0.01 -0.00833333 0
0.00666667 -0.00833333 0
0.00333333 -0.00833333 0
0 -0.00833333 0
0.1 -0.0116667 0
0.0966667 -0.0116667 0
0.0933333 -0.0116667 0
0.09 -0.0116667 0
0.0866667 -0.0116667 0
0.0833333 -0.0116667 0
0.08 -0.0116667 0
0.0766667 -0.0116667 0
0.0733333 -0.0116667 0
0.07 -0.0116667 0
0.0666667 -0.0116667 0
0.0633333 -0.0116667 0
0.06 -0.0116667 0
0.0566667 -0.0116667 0
0.0533333 -0.0116667 0
0.05 -0.0116667 0
0.0466667 -0.0116667 0
0.0433333 -0.0116667 0
0.04 -0.0116667 0
0.0366667 -0.0116667 0
0.0333333 -0.0116667 0
0.03 -0.0116667 0
0.0266667 -0.0116667 0
0.0233333 -0.0116667 0
0.02 -0.0116667 0
0.0166667 -0.0116667 0
0.0133333 -0.0116667 0
0.01 -0.0116667 0
0.00666667 -0.0116667 0
0.00333333 -0.0116667 0
0 -0.0116667 0
0.1 -0.015 0
0.0966667 -0.015 0
0.0933333 -0.015 0
0.09 -0.015 0
0.0866667 -0.015 0
0.0833333 -0.015 0
0.08 -0.015 0
0.0766667 -0.015 0
0.0733333 -0.015 0
0.07 -0.015 0
0.0666667 -0.015 0
0.0633333 -0.015 0
0.06 -0.015 0
0.0566667 -0.015 0
0.0533333 -0.015 0
0.05 -0.015 0
0.0466667 -0.015 0
0.0433333 -0.015 0
0.04 -0.015 0
0.0366667 -0.015 0
0.0333333 -0.015 0
0.03 -0.015 0
0.0266667 -0.015 0
0.0233333 -0.015 0
0.02 -0.015 0
0.0166667 -0.015 0
0.0133333 -0.015 0
0.01 -0.015 0
0.00666667 -0.015 0
0.00333333 -0.015 0
0 -0.015 0
0.1 -0.0183333 0
0.0966667 -0.0183333 0
0.0933333 -0.0183333 0
0.09 -0.0183333 0
0.0866667 -0.0183333 0
0.0833333 -0.0183333 0
0.08 -0.0183333 0
0.0766667 -0.0183333 0
0.0733333 -0.0183333 0
0.07 -0.0183333 0
0.0666667 -0.0183333 0
0.0633333 -0.0183333 0
0.06 -0.0183333 0
0.0566667 -0.0183333 0
0.0533333 -0.0183333 0
0.05 -0.0183333 0
0.0466667 -0.0183333 0
0.0433333 -0.0183333 0
0.04 -0.0183333 0
0.0366667 -0.0183333 0
0.0333333 -0.0183333 0
0.03 -0.0183333 0
0.0266667 -0.0183333 0
0.0233333 -0.0183333 0
0.02 -0.0183333 0
0.0166667 -0.0183333 0
0.0133333 -0.0183333 0
0.01 -0.0183333 0
0.00666667 -0.0183333 0
0.00333333 -0.0183333 0
0 -0.0183333 0
0.1 -0.0216667 0
0.0966667 -0.0216667 0
0.0933333 -0.0216667 0
0.09 -0.0216667 0
0.0866667 -0.0216667 0
0.0833333 -0.0216667 0
0.08 -0.0216667 0
0.0766667 -0.0216667 0
0.0733333 -0.0216667 0
0.07 -0.0216667 0
0.0666667 -0.0216667 0
0.0633333 -0.0216667 0
0.06 -0.0216667 0
0.0566667 -0.0216667 0
0.0533333 -0.0216667 0
0.05 -0.0216667 0
0.0466667 -0.0216667 0
0.0433333 -0.0216667 0
0.04 -0.0216667 0
0.0366667 -0.0216667 0
0.0333333 -0.0216667 0
0.03 -0.0216667 0
0.0266667 -0.0216667 0
0.0233333 -0.0216667 0
0.02 -0.0216667 0
0.0166667 -0.0216667 0
0.0133333 -0.0216667 0
0.01 -0.0216667 0
0.00666667 -0.0216667 0
0.00333333 -0.0216667 0
0 -0.0216667 0
0.1 -0.025 0
0.0966667 -0.025 0
0.0933333 -0.025 0
0.09 -0.025 0
0.0866667 -0.025 0
0.0833333 -0.025 0
0.08 -0.025 0
0.0766667 -0.025 0
0.0733333 -0.025 0
0.07 -0.025 0
0.0666667 -0.025 0
0.0633333 -0.025 0
0.06 -0.025 0
0.0566667 -0.025 0
0.0533333 -0.025 0
0.05 -0.025 0
0.0466667 -0.025 0
0.0433333 -0.025 0
0.04 -0.025 0
0.0366667 -0.025 0
0.0333333 -0.025 0
0.03 -0.025 0
0.0266667 -0.025 0
0.0233333 -0.025 0
0.02 -0.025 0
0.0166667 -0.025 0
0.0133333 -0.025 0
0.01 -0.025 0
0.00666667 -0.025 0
0.00333333 -0.025 0
0 -0.025 0
0.1 -0.0283333 0
0.0966667 -0.0283333 0
0.0933333 -0.0283333 0
0.09 -0.0283333 0
0.0866667 -0.0283333 0
0.0833333 -0.0283333 0
0.08 -0.0283333 0
0.0766667 -0.0283333 0
0.0733333 -0.0283333 0
0.07 -0.0283333 0
0.0666667 -0.0283333 0
0.0633333 -0.0283333 0
0.06 -0.0283333 0
0.0566667 -0.0283333 0
0.0533333 -0.0283333 0
0.05 -0.0283333 0
0.0466667 -0.0283333 0
0.0433333 -0.0283333 0
0.04 -0.0283333 0
0.0366667 -0.0283333 0
0.0333333 -0.0283333 0
0.03 -0.0283333 0
0.0266667 -0.0283333 0
0.0233333 -0.0283333 0
0.02 -0.0283333 0
0.0166667 -0.0283333 0
0.0133333 -0.0283333 0
0.01 -0.0283333 0
0.00666667 -0.0283333 0
0.00333333 -0.0283333 0
0 -0.0283333 0
0.1 -0.0316667 0
0.0966667 -0.0316667 0
0.0933333 -0.0316667 0
0.09 -0.0316667 0
0.0866667 -0.0316667 0
0.0833333 -0.0316667 0
0.08 -0.0316667 0
0.0766667 -0.0316667 0
0.0733333 -0.0316667 0
0.07 -0.0316667 0
0.0666667 -0.0316667 0
0.0633333 -0.0316667 0
0.06 -0.0316667 0
0.0566667 -0.0316667 0
0.0533333 -0.0316667 0
0.05 -0.0316667 0
0.0466667 -0.0316667 0
0.0433333 -0.0316667 0
0.04 -0.0316667 0
0.0366667 -0.0316667 0
0.0333333 -0.0316667 0
0.03 -0.0316667 0
0.0266667 -0.0316667 0
0.0233333 -0.0316667 0
0.02 -0.0316667 0
0.0166667 -0.0316667 0
0.0133333 -0.0316667 0
0.01 -0.0316667 0
0.00666667 -0.0316667 0
0.00333333 -0.0316667 0
0 -0.0316667 0
0.1 -0.035 0
0.0966667 -0.035 0
0.0933333 -0.035 0
0.09 -0.035 0
0.0866667 -0.035 0
0.0833333 -0.035 0
0.08 -0.035 0
0.0766667 -0.035 0
0.0733333 -0.035 0
0.07 -0.035 0
0.0666667 -0.035 0
0.0633333 -0.035 0
0.06 -0.035 0
0.0566667 -0.035 0
0.0533333 -0.035 0
0.05 -0.035 0
0.0466667 -0.035 0
0.0433333 -0.035 0
0.04 -0.035 0
0.0366667 -0.035 0
0.0333333 -0.035 0
0.03 -0.035 0
0.0266667 -0.035 0
0.0233333 -0.035 0
0.02 -0.035 0
0.0166667 -0.035 0
0.0133333 -0.035 0
0.01 -0.035 0
0.00666667 -0.035 0
0.00333333 -0.035 0
0 -0.035 0
0.1 -0.0383333 0
0.0966667 -0.0383333 0
0.0933333 -0.0383333 0
0.09 -0.0383333 0
0.0866667 -0.0383333 0
0.0833333 -0.0383333 0
0.08 -0.0383333 0
0.0766667 -0.0383333 0
0.0733333 -0.0383333 0
0.07 -0.0383333 0
0.0666667 -0.0383333 0
0.0633333 -0.0383333 0
0.06 -0.0383333 0
0.0566667 -0.0383333 0
0.0533333 -0.0383333 0
0.05 -0.0383333 0
0.0466667 -0.0383333 0
0.0433333 -0.0383333 0
0.04 -0.0383333 0
0.0366667 -0.0383333 0
0.0333333 -0.0383333 0
0.03 -0.0383333 0
0.0266667 -0.0383333 0
0.0233333 -0.0383333 0
0.02 -0.0383333 0
0.0166667 -0.0383333 0
0.0133333 -0.0383333 0
0.01 -0.0383333 0
0.00666667 -0.0383333 0
0.00333333 -0.0383333 0
0 -0.0383333 0
0.1 -0.0416667 0
0.0966667 -0.0416667 0
0.0933333 -0.0416667 0
0.09 -0.0416667 0
0.0866667 -0.0416667 0
0.0833333 -0.0416667 0
0.08 -0.0416667 0
0.0766667 -0.0416667 0
0.0733333 -0.0416667 0
0.07 -0.0416667 0
0.0666667 -0.0416667 0
0.0633333 -0.0416667 0
0.06 -0.0416667 0
0.0566667 -0.0416667 0
0.0533333 -0.0416667 0
0.05 -0.0416667 0
0.0466667 -0.0416667 0
0.0433333 -0.0416667 0
0.04 -0.0416667 0
0.0366667 -0.0416667 0
0.0333333 -0.0416667 0
0.03 -0.0416667 0
0.0266667 -0.0416667 0
0.0233333 -0.0416667 0
0.02 -0.0416667 0
0.0166667 -0.0416667 0
0.0133333 -0.0416667 0
0.01 -0.0416667 0
0.00666667 -0.0416667 0
0.00333333 -0.0416667 0
0 -0.0416667 0
0.1 -0.045 0
0.0966667 -0.045 0
0.0933333 -0.045 0
0.09 -0.045 0
0.0866667 -0.045 0
0.0833333 -0.045 0
0.08 -0.045 0
0.0766667 -0.045 0
0.0733333 -0.045 0
0.07 -0.045 0
0.0666667 -0.045 0
0.0633333 -0.045 0
0.06 -0.045 0
0.0566667 -0.045 0
0.0533333 -0.045 0
0.05 -0.045 0
0.0466667 -0.045 0
0.0433333 -0.045 0
0.04 -0.045 0
0.0366667 -0.045 0
0.0333333 -0.045 0
0.03 -0.045 0
0.0266667 -0.045 0
0.0233333 -0.045 0
0.02 -0.045 0
0.0166667 -0.045 0
0.0133333 -0.045 0
0.01 -0.045 0
0.00666667 -0.045 0
0.00333333 -0.045 0
0 -0.045 0
0.1 -0.0483333 0
0.0966667 -0.0483333 0
0.0933333 -0.0483333 0
0.09 -0.0483333 0
0.0866667 -0.0483333 0
[...]
POINT_DATA 961
SCALARS Temp float 1
LOOKUP_TABLE default
1091.768320
1087.560186
1083.600442
1079.897823
1076.460501
1073.296087
1070.411554
1067.813289
1065.507020
1063.497851
1061.790215
1060.387882
1059.293954
1058.510848
1058.040290
1057.883322
1058.040290
1058.510848
1059.293956
1060.387884
1061.790215
1063.497854
1065.507024
1067.813291
1070.411560
1073.296088
1076.460506
1079.897825
1083.600448
1087.560199
1091.768330
1087.560193
1083.188442
1079.074738
1075.228158
1071.657191
1068.369741
1065.373056
1062.673768
1060.277830
1058.190543
1056.416513
1054.959656
1053.823195
1053.009641
1052.520787
1052.357716
1052.520787
1053.009641
1053.823197
1054.959658
1056.416512
1058.190545
1060.277834
1062.673770
1065.373061
1068.369742
1071.657196
1075.228160
1079.074744
1083.188453
1087.560199
1083.600443
1079.074734
1074.816159
1070.834114
1067.137390
1063.734167
1060.631948
1057.837601
1055.357286
1053.196491
1051.359986
1049.851823
1048.675341
1047.833135
1047.327066
1047.158252
1047.327066
1047.833136
1048.675342
1049.851826
1051.359985
1053.196494
1055.357290
1057.837603
1060.631954
1063.734168
1067.137395
1070.834116
1074.816164
1079.074744
1083.600448
1079.897820
1075.228150
1070.834111
1066.725399
1062.911083
1059.399605
1056.198706
1053.315472
1050.756258
1048.526730
1046.631806
1045.075669
1043.861763
1042.992768
1042.470601
1042.296417
1042.470601
1042.992768
1043.861765
1045.075672
1046.631805
1048.526732
1050.756262
1053.315474
1056.198712
1059.399606
1062.911088
1066.725400
1070.834116
1075.228159
1079.897825
1076.460503
1071.657187
1067.137390
1062.911087
1058.987605
1055.375629
1052.083120
1049.117368
1046.484910
1044.191573
1042.242416
1040.641743
1039.393095
1038.499228
1037.962117
1037.782948
1037.962117
1038.499229
1039.393096
1040.641745
1042.242415
1044.191575
1046.484914
1049.117370
1052.083126
1055.375629
1058.987610
1062.911088
1067.137395
1071.657196
1076.460507
1073.296085
1068.369734
1063.734164
1059.399606
1055.375626
1051.671130
1048.294285
1045.252566
1042.552678
1040.200598
1038.201514
1036.559840
1035.279209
1034.362446
1033.811577
1033.627819
1033.811577
1034.362447
1035.279211
1036.559843
1038.201514
1040.200601
1042.552683
1045.252568
1048.294291
1051.671130
1055.375630
1059.399607
1063.734168
1068.369743
1073.296089
1070.411557
1065.373053
1060.631950
1056.198712
1052.083122
1048.294289
1044.840568
1041.729601
1038.968248
1036.562621
1034.518026
1032.838978
1031.529191
1030.591558
1030.028148
1029.840206
1030.028148
1030.591559
1031.529193
1032.838981
1034.518025
1036.562623
1038.968253
1041.729603
1044.840573
1048.294290
1052.083126
1056.198712
1060.631954
1065.373061
1070.411560
1067.813290
1062.673763
1057.837601
1053.315475
1049.117367
1045.252568
1041.729598
1038.556256
1035.739538
1033.285677
1031.200088
1029.487375
1028.151327
1027.194894
1026.620187
1026.428477
1026.620188
1027.194895
1028.151329
1029.487377
1031.200087
1033.285680
1035.739542
1038.556258
1041.729604
1045.252568
1049.117371
1053.315475
1057.837604
1062.673771
1067.813293
1065.507023
1060.277826
1055.357287
1050.756264
1046.484911
1042.552683
1038.968248
1035.739541
1032.873678
1030.377005
1028.255029
1026.512434
1025.153076
1024.179956
1023.595222
1023.400167
1023.595223
1024.179956
1025.153078
1026.512436
1028.255028
1030.377008
1032.873683
1035.739542
1038.968254
1042.552683
1046.484915
1050.756264
1055.357291
1060.277835
1065.507025
1063.497851
1058.190537
1053.196490
1048.526733
1044.191571
1040.200600
1036.562617
1033.285677
1030.377002
1027.843031
1025.689355
1023.920728
1022.541062
1021.553405
1020.959936
1020.761968
1020.959936
1021.553406
1022.541064
1023.920730
1025.689354
1027.843034
1030.377007
1033.285679
1036.562623
1040.200599
1044.191575
1048.526733
1053.196494
1058.190545
1063.497854
1061.790214
1056.416505
1051.359983
1046.631807
1042.242412
1038.201514
1034.518021
1031.200086
1028.255023
1025.689353
1023.508734
1021.717981
1020.321056
1019.321044
1018.720150
1018.519705
1018.720151
1019.321044
1020.321058
1021.717984
1023.508733
1025.689355
1028.255028
1031.200087
1034.518026
1038.201514
1042.242417
1046.631807
1051.359986
1056.416513
1061.790216
1060.387883
1054.959650
1049.851823
1045.075673
1040.641742
1036.559843
1032.838975
1029.487375
1026.512431
1023.920728
1021.717984
1019.909062
1018.497963
1017.487804
1016.880814
1016.678335
1016.880814
1017.487804
1018.497965
1019.909064
1021.717983
1023.920731
1026.512436
1029.487377
1032.838981
1036.559843
1040.641746
1045.075673
1049.851826
1054.959658
1060.387885
1059.293955
1053.823189
1048.675340
1043.861767
1039.393093
1035.279211
1031.529188
1028.151327
1025.153073
1022.541063
1020.321059
1018.497963
1017.075807
1016.057733
1015.445987
1015.241921
1015.445987
1016.057734
1017.075809
1018.497965
1020.321058
1022.541065
1025.153077
1028.151329
1031.529194
1035.279211
1039.393098
1043.861766
1048.675343
1053.823198
1059.293957
1058.510847
1053.009634
1047.833134
1042.992770
1038.499226
1034.362447
1030.591554
1027.194893
1024.179952
1021.553404
1019.321045
1017.487802
1016.057732
1015.033991
1014.418841
1014.213639
1014.418841
1015.033992
1016.057734
1017.487805
1019.321044
1021.553407
1024.179957
1027.194895
1030.591560
1034.362447
1038.499230
1042.992770
1047.833137
1053.009642
1058.510850
1058.040289
1052.520780
1047.327064
1042.470603
1037.962115
1033.811578
1030.028144
1026.620186
1023.595218
1020.959935
1018.720152
1016.880812
1015.445986
1014.418841
1013.801644
1013.595760
1013.801644
1014.418841
1015.445988
1016.880815
1018.720151
1020.959938
1023.595223
1026.620188
1030.028150
1033.811578
1037.962119
1042.470603
1047.327068
1052.520789
1058.040292
1057.883321
1052.357709
1047.158251
1042.296420
1037.782946
1033.627820
1029.840202
1026.428476
1023.400164
1020.761967
1018.519707
1016.678333
1015.241920
1014.213640
1013.595760
1013.389649
1013.595761
1014.213640
1015.241922
1016.678336
1018.519706
1020.761970
1023.400169
1026.428478
1029.840208
1033.627820
1037.782950
1042.296419
1047.158254
1052.357718
1057.883324
1058.040289
1052.520780
1047.327064
1042.470603
1037.962115
1033.811578
1030.028144
1026.620186
1023.595218
1020.959936
1018.720152
1016.880812
1015.445986
1014.418841
1013.801644
1013.595760
1013.801644
1014.418841
1015.445988
1016.880815
1018.720151
1020.959939
1023.595223
1026.620188
1030.028150
1033.811578
1037.962119
1042.470603
1047.327068
1052.520789
1058.040292
1058.510847
1053.009633
1047.833133
1042.992770
1038.499226
1034.362447
1030.591554
1027.194893
1024.179952
1021.553404
1019.321045
1017.487802
1016.057732
1015.033992
1014.418841
1014.213640
1014.418841
1015.033992
1016.057734
1017.487805
1019.321045
1021.553408
1024.179957
1027.194895
1030.591561
1034.362448
1038.499231
1042.992770
1047.833137
1053.009643
1058.510850
1059.293955
1053.823189
1048.675340
1043.861767
1039.393093
1035.279211
1031.529188
1028.151327
1025.153073
1022.541063
1020.321059
1018.497963
1017.075807
1016.057733
1015.445987
1015.241922
1015.445987
1016.057734
1017.075810
1018.497966
1020.321059
1022.541066
1025.153078
1028.151329
1031.529195
1035.279211
1039.393098
1043.861767
1048.675344
1053.823199
1059.293958
1060.387883
1054.959650
1049.851823
1045.075673
1040.641742
1036.559843
1032.838975
1029.487375
1026.512431
1023.920728
1021.717984
1019.909062
1018.497963
1017.487804
1016.880814
1016.678335
1016.880814
1017.487805
1018.497966
1019.909065
1021.717984
1023.920732
1026.512437
1029.487378
1032.838982
1036.559844
1040.641747
1045.075674
1049.851827
1054.959660
1060.387886
1061.790214
1056.416505
1051.359984
1046.631808
1042.242413
1038.201515
1034.518022
1031.200087
1028.255025
1025.689354
1023.508736
1021.717983
1020.321058
1019.321045
1018.720152
1018.519707
1018.720153
1019.321046
1020.321060
1021.717986
1023.508735
1025.689358
1028.255030
1031.200090
1034.518029
1038.201516
1042.242419
1046.631809
1051.359989
1056.416515
1061.790218
1063.497850
1058.190535
1053.196489
1048.526732
1044.191570
1040.200598
1036.562616
1033.285676
1030.377001
1027.843030
1025.689354
1023.920727
1022.541061
1021.553404
1020.959936
1020.761967
1020.959936
1021.553405
1022.541064
1023.920730
1025.689354
1027.843034
1030.377007
1033.285679
1036.562623
1040.200600
1044.191576
1048.526733
1053.196494
1058.190546
1063.497854
1065.507023
1060.277827
1055.357288
1050.756265
1046.484912
1042.552684
1038.968249
1035.739542
1032.873680
1030.377007
1028.255031
1026.512436
1025.153078
1024.179958
1023.595225
1023.400170
1023.595225
1024.179959
1025.153080
1026.512439
1028.255031
1030.377011
1032.873686
1035.739545
1038.968257
1042.552686
1046.484919
1050.756267
1055.357294
1060.277838
1065.507029
1067.813288
1062.673761
1057.837599
1053.315473
1049.117365
1045.252566
1041.729596
1038.556255
1035.739536
1033.285676
1031.200087
1029.487374
1028.151326
1027.194893
1026.620186
1026.428476
1026.620187
1027.194894
1028.151328
1029.487377
1031.200087
1033.285680
1035.739542
1038.556258
1041.729604
1045.252568
1049.117372
1053.315476
1057.837605
1062.673772
1067.813293
1070.411558
1065.373054
1060.631952
1056.198714
1052.083124
1048.294292
1044.840570
1041.729604
1038.968251
1036.562624
1034.518030
1032.838982
1031.529195
1030.591562
1030.028152
1029.840210
1030.028153
1030.591563
1031.529198
1032.838985
1034.518030
1036.562628
1038.968257
1041.729608
1044.840578
1048.294295
1052.083131
1056.198717
1060.631959
1065.373066
1070.411565
1073.296084
1068.369733
1063.734163
1059.399605
1055.375625
1051.671129
1048.294285
1045.252566
1042.552678
1040.200598
1038.201515
1036.559841
1035.279209
1034.362447
1033.811578
1033.627820
1033.811579
1034.362448
1035.279212
1036.559845
1038.201515
1040.200603
1042.552685
1045.252570
1048.294293
1051.671133
1055.375633
1059.399610
1063.734172
1068.369746
1073.296092
1076.460499
1071.657183
1067.137386
1062.911083
1058.987601
1055.375625
1052.083117
1049.117365
1046.484907
1044.191569
1042.242413
1040.641740
1039.393092
1038.499226
1037.962115
1037.782946
1037.962115
1038.499227
1039.393095
1040.641744
1042.242414
1044.191574
1046.484913
1049.117369
1052.083126
1055.375629
1058.987610
1062.911088
1067.137395
1071.657197
1076.460508
1079.897820
1075.228149
1070.834110
1066.725399
1062.911083
1059.399605
1056.198707
1053.315473
1050.756260
1048.526732
1046.631808
1045.075671
1043.861765
1042.992770
1042.470603
1042.296420
1042.470604
1042.992771
1043.861768
1045.075675
1046.631809
1048.526736
1050.756266
1053.315478
1056.198716
1059.399610
1062.911093
1066.725405
1070.834121
1075.228165
1079.897830
1083.600438
1079.074729
1074.816154
1070.834110
1067.137386
1063.734163
1060.631945
1057.837598
1055.357283
1053.196489
1051.359983
1049.851821
1048.675338
1047.833133
1047.327064
1047.158251
1047.327065
1047.833134
1048.675341
1049.851825
1051.359984
1053.196493
1055.357289
1057.837603
1060.631954
1063.734168
1067.137396
1070.834117
1074.816166
1079.074747
1083.600451
1087.560192
1083.188441
1079.074738
1075.228159
1071.657193
1068.369743
1065.373059
1062.673772
1060.277833
1058.190547
1056.416517
1054.959660
1053.823200
1053.009645
1052.520792
1052.357721
1052.520793
1053.009646
1053.823202
1054.959664
1056.416518
1058.190551
1060.277840
1062.673777
1065.373068
1068.369749
1071.657203
1075.228167
1079.074752
1083.188462
1087.560210
1091.768312
1087.560180
1083.600438
1079.897820
1076.460499
1073.296085
1070.411553
1067.813288
1065.507019
1063.497850
1061.790215
1060.387882
1059.293954
1058.510847
1058.040290
1057.883322
1058.040290
1058.510848
1059.293957
1060.387885
1061.790216
1063.497855
1065.507026
1067.813293
1070.411561
1073.296090
1076.460509
1079.897828
1083.600452
1087.560204
1091.768338
