# vtk DataFile Version 2.0
Unstructured Grid Example
ASCII
DATASET UNSTRUCTURED_GRID

POINTS 961 float
0.1 0.005 0
0.0966667 0.005 0
0.0933333 0.005 0
0.09 0.005 0
0.0866667 0.005 0
0.0833333 0.005 0
0.08 0.005 0
0.0766667 0.005 0
0.0733333 0.005 0
0.07 0.005 0
0.0666667 0.005 0
0.0633333 0.005 0
0.06 0.005 0
0.0566667 0.005 0
0.0533333 0.005 0
0.05 0.005 0
0.0466667 0.005 0
0.0433333 0.005 0
0.04 0.005 0
0.0366667 0.005 0
0.0333333 0.005 0
0.03 0.005 0
0.0266667 0.005 0
0.0233333 0.005 0
0.02 0.005 0
0.0166667 0.005 0
0.0133333 0.005 0
0.01 0.005 0
0.00666667 0.005 0
0.00333333 0.005 0
0 0.005 0
0.1 0.00166667 0
0.0966667 0.00166667 0
0.0933333 0.00166667 0
0.09 0.00166667 0
0.0866667 0.00166667 0
0.0833333 0.00166667 0
0.08 0.00166667 0
0.0766667 0.00166667 0
0.0733333 0.00166667 0
0.07 0.00166667 0
0.0666667 0.00166667 0
0.0633333 0.00166667 0
0.06 0.00166667 0
0.0566667 0.00166667 0
0.0533333 0.00166667 0
0.05 0.00166667 0
0.0466667 0.00166667 0
0.0433333 0.00166667 0
0.04 0.00166667 0
0.0366667 0.00166667 0
0.0333333 0.00166667 0
0.03 0.00166667 0
0.0266667 0.00166667 0
0.0233333 0.00166667 0
0.02 0.00166667 0
0.0166667 0.00166667 0
0.0133333 0.00166667 0
0.01 0.00166667 0
0.00666667 0.00166667 0
0.00333333 0.00166667 0
0 0.00166667 0
0.1 -0.00166667 0
0.0966667 -0.00166667 0
0.0933333 -0.00166667 0
0.09 -0.00166667 0
0.0866667 -0.00166667 0
0.0833333 -0.00166667 0
0.08 -0.00166667 0
0.0766667 -0.00166667 0
0.0733333 -0.00166667 0
0.07 -0.00166667 0
0.0666667 -0.00166667 0
0.0633333 -0.00166667 0
0.06 -0.00166667 0
0.0566667 -0.00166667 0
0.0533333 -0.00166667 0
0.05 -0.00166667 0
0.0466667 -0.00166667 0
0.0433333 -0.00166667 0
0.04 -0.00166667 0
0.0366667 -0.00166667 0
0.0333333 -0.00166667 0
0.03 -0.00166667 0
0.0266667 -0.00166667 0
0.0233333 -0.00166667 0
0.02 -0.00166667 0
0.0166667 -0.00166667 0
0.0133333 -0.00166667 0
0.01 -0.00166667 0
0.00666667 -0.00166667 0
0.00333333 -0.00166667 0
0 -0.00166667 0
0.1 -0.005 0
0.0966667 -0.005 0
0.0933333 -0.005 0
0.09 -0.005 0
0.0866667 -0.005 0
0.0833333 -0.005 0
0.08 -0.005 0
0.0766667 -0.005 0
0.0733333 -0.005 0
0.07 -0.005 0
0.0666667 -0.005 0
0.0633333 -0.005 0
0.06 -0.005 0
0.0566667 -0.005 0
0.0533333 -0.005 0
0.05 -0.005 0
0.0466667 -0.005 0
0.0433333 -0.005 0
0.04 -0.005 0
0.0366667 -0.005 0
0.0333333 -0.005 0
0.03 -0.005 0
0.0266667 -0.005 0
0.0233333 -0.005 0
0.02 -0.005 0
0.0166667 -0.005 0
0.0133333 -0.005 0
0.01 -0.005 0
0.00666667 -0.005 0
0.00333333 -0.005 0
0 -0.005 0
0.1 -0.00833333 0
0.0966667 -0.00833333 0
0.0933333 -0.00833333 0
0.09 -0.00833333 0
0.0866667 -0.00833333 0
0.0833333 -0.00833333 0
0.08 -0.00833333 0
0.0766667 -0.00833333 0
0.0733333 -0.00833333 0
0.07 -0.00833333 0
0.0666667 -0.00833333 0
0.0633333 -0.00833333 0
0.06 -0.00833333 0
0.0566667 -0.00833333 0
0.0533333 -0.00833333 0
0.05 -0.00833333 0
0.0466667 -0.00833333 0
0.0433333 -0.00833333 0
0.04 -0.00833333 0
0.0366667 -0.00833333 0
0.0333333 -0.00833333 0
0.03 -0.00833333 0
0.0266667 -0.00833333 0
0.0233333 -0.00833333 0
0.02 -0.00833333 0
0.0166667 -0.00833333 0
0.0133333 -0.00833333 0
0.01 -0.00833333 0
0.00666667 -0.00833333 0
0.00333333 -0.00833333 0
0 -0.00833333 0
0.1 -0.0116667 0
0.0966667 -0.0116667 0
0.0933333 -0.0116667 0
0.09 -0.0116667 0
0.0866667 -0.0116667 0
0.0833333 -0.0116667 0
0.08 -0.0116667 0
0.0766667 -0.0116667 0
0.0733333 -0.0116667 0
0.07 -0.0116667 0
0.0666667 -0.0116667 0
0.0633333 -0.0116667 0
0.06 -0.0116667 0
0.0566667 -0.0116667 0
0.0533333 -0.0116667 0
0.05 -0.0116667 0
0.0466667 -0.0116667 0
0.0433333 -0.0116667 0
0.04 -0.0116667 0
0.0366667 -0.0116667 0
0.0333333 -0.0116667 0
0.03 -0.0116667 0
0.0266667 -0.0116667 0
0.0233333 -0.0116667 0
0.02 -0.0116667 0
0.0166667 -0.0116667 0
0.0133333 -0.0116667 0
0.01 -0.0116667 0
0.00666667 -0.0116667 0
0.00333333 -0.0116667 0
0 -0.0116667 0
0.1 -0.015 0
0.0966667 -0.015 0
0.0933333 -0.015 0
0.09 -0.015 0
0.0866667 -0.015 0
0.0833333 -0.015 0
0.08 -0.015 0
0.0766667 -0.015 0
0.0733333 -0.015 0
0.07 -0.015 0
0.0666667 -0.015 0
0.0633333 -0.015 0
0.06 -0.015 0
0.0566667 -0.015 0
0.0533333 -0.015 0
0.05 -0.015 0
0.0466667 -0.015 0
0.0433333 -0.015 0
0.04 -0.015 0
0.0366667 -0.015 0
0.0333333 -0.015 0
0.03 -0.015 0
0.0266667 -0.015 0
0.0233333 -0.015 0
0.02 -0.015 0
0.0166667 -0.015 0
0.0133333 -0.015 0
0.01 -0.015 0
0.00666667 -0.015 0
0.00333333 -0.015 0
0 -0.015 0
0.1 -0.0183333 0
0.0966667 -0.0183333 0
0.0933333 -0.0183333 0
0.09 -0.0183333 0
0.0866667 -0.0183333 0
0.0833333 -0.0183333 0
0.08 -0.0183333 0
0.0766667 -0.0183333 0
0.0733333 -0.0183333 0
0.07 -0.0183333 0
0.0666667 -0.0183333 0
0.0633333 -0.0183333 0
0.06 -0.0183333 0
0.0566667 -0.0183333 0
0.0533333 -0.0183333 0
0.05 -0.0183333 0
0.0466667 -0.0183333 0
0.0433333 -0.0183333 0
0.04 -0.0183333 0
0.0366667 -0.0183333 0
0.0333333 -0.0183333 0
0.03 -0.0183333 0
0.0266667 -0.0183333 0
0.0233333 -0.0183333 0
0.02 -0.0183333 0
0.0166667 -0.0183333 0
0.0133333 -0.0183333 0
0.01 -0.0183333 0
0.00666667 -0.0183333 0
0.00333333 -0.0183333 0
0 -0.0183333 0
0.1 -0.0216667 0
0.0966667 -0.0216667 0
0.0933333 -0.0216667 0
0.09 -0.0216667 0
0.0866667 -0.0216667 0
0.0833333 -0.0216667 0
0.08 -0.0216667 0
0.0766667 -0.0216667 0
0.0733333 -0.0216667 0
0.07 -0.0216667 0
0.0666667 -0.0216667 0
0.0633333 -0.0216667 0
0.06 -0.0216667 0
0.0566667 -0.0216667 0
0.0533333 -0.0216667 0
0.05 -0.0216667 0
0.0466667 -0.0216667 0
0.0433333 -0.0216667 0
0.04 -0.0216667 0
0.0366667 -0.0216667 0
0.0333333 -0.0216667 0
0.03 -0.0216667 0
0.0266667 -0.0216667 0
0.0233333 -0.0216667 0
0.02 -0.0216667 0
0.0166667 -0.0216667 0
0.0133333 -0.0216667 0
0.01 -0.0216667 0
0.00666667 -0.0216667 0
0.00333333 -0.0216667 0
0 -0.0216667 0
0.1 -0.025 0
0.0966667 -0.025 0
0.0933333 -0.025 0
0.09 -0.025 0
0.0866667 -0.025 0
0.0833333 -0.025 0
0.08 -0.025 0
0.0766667 -0.025 0
0.0733333 -0.025 0
0.07 -0.025 0
0.0666667 -0.025 0
0.0633333 -0.025 0
0.06 -0.025 0
0.0566667 -0.025 0
0.0533333 -0.025 0
0.05 -0.025 0
0.0466667 -0.025 0
0.0433333 -0.025 0
0.04 -0.025 0
0.0366667 -0.025 0
0.0333333 -0.025 0
0.03 -0.025 0
0.0266667 -0.025 0
0.0233333 -0.025 0
0.02 -0.025 0
0.0166667 -0.025 0
0.0133333 -0.025 0
0.01 -0.025 0
0.00666667 -0.025 0
0.00333333 -0.025 0
0 -0.025 0
0.1 -0.0283333 0
0.0966667 -0.0283333 0
0.0933333 -0.0283333 0
0.09 -0.0283333 0
0.0866667 -0.0283333 0
0.0833333 -0.0283333 0
0.08 -0.0283333 0
0.0766667 -0.0283333 0
0.0733333 -0.0283333 0
0.07 -0.0283333 0
0.0666667 -0.0283333 0
0.0633333 -0.0283333 0
0.06 -0.0283333 0
0.0566667 -0.0283333 0
0.0533333 -0.0283333 0
0.05 -0.0283333 0
0.0466667 -0.0283333 0
0.0433333 -0.0283333 0
0.04 -0.0283333 0
0.0366667 -0.0283333 0
0.0333333 -0.0283333 0
0.03 -0.0283333 0
0.0266667 -0.0283333 0
0.0233333 -0.0283333 0
0.02 -0.0283333 0
0.0166667 -0.0283333 0
0.0133333 -0.0283333 0
0.01 -0.0283333 0
0.00666667 -0.0283333 0
0.00333333 -0.0283333 0
0 -0.0283333 0
0.1 -0.0316667 0
0.0966667 -0.0316667 0
0.0933333 -0.0316667 0
0.09 -0.0316667 0
0.0866667 -0.0316667 0
0.0833333 -0.0316667 0
0.08 -0.0316667 0
0.0766667 -0.0316667 0
0.0733333 -0.0316667 0
0.07 -0.0316667 0
0.0666667 -0.0316667 0
0.0633333 -0.0316667 0
0.06 -0.0316667 0
0.0566667 -0.0316667 0
0.0533333 -0.0316667 0
0.05 -0.0316667 0
0.0466667 -0.0316667 0
0.0433333 -0.0316667 0
0.04 -0.0316667 0
0.0366667 -0.0316667 0
0.0333333 -0.0316667 0
0.03 -0.0316667 0
0.0266667 -0.0316667 0
0.0233333 -0.0316667 0
0.02 -0.0316667 0
0.0166667 -0.0316667 0
0.0133333 -0.0316667 0
0.01 -0.0316667 0
0.00666667 -0.0316667 0
0.00333333 -0.0316667 0
0 -0.0316667 0
0.1 -0.035 0
0.0966667 -0.035 0
0.0933333 -0.035 0
0.09 -0.035 0
0.0866667 -0.035 0
0.0833333 -0.035 0
0.08 -0.035 0
0.0766667 -0.035 0
0.0733333 -0.035 0
0.07 -0.035 0
0.0666667 -0.035 0
0.0633333 -0.035 0
0.06 -0.035 0
0.0566667 -0.035 0
0.0533333 -0.035 0
0.05 -0.035 0
0.0466667 -0.035 0
0.0433333 -0.035 0
0.04 -0.035 0
0.0366667 -0.035 0
0.0333333 -0.035 0
0.03 -0.035 0
0.0266667 -0.035 0
0.0233333 -0.035 0
0.02 -0.035 0
0.0166667 -0.035 0
0.0133333 -0.035 0
0.01 -0.035 0
0.00666667 -0.035 0
0.00333333 -0.035 0
0 -0.035 0
0.1 -0.0383333 0
0.0966667 -0.0383333 0
0.0933333 -0.0383333 0
0.09 -0.0383333 0
0.0866667 -0.0383333 0
0.0833333 -0.0383333 0
0.08 -0.0383333 0
0.0766667 -0.0383333 0
0.0733333 -0.0383333 0
0.07 -0.0383333 0
0.0666667 -0.0383333 0
0.0633333 -0.0383333 0
0.06 -0.0383333 0
0.0566667 -0.0383333 0
0.0533333 -0.0383333 0
0.05 -0.0383333 0
0.0466667 -0.0383333 0
0.0433333 -0.0383333 0
0.04 -0.0383333 0
0.0366667 -0.0383333 0
0.0333333 -0.0383333 0
0.03 -0.0383333 0
0.0266667 -0.0383333 0
0.0233333 -0.0383333 0
0.02 -0.0383333 0
0.0166667 -0.0383333 0
0.0133333 -0.0383333 0
0.01 -0.0383333 0
0.00666667 -0.0383333 0
0.00333333 -0.0383333 0
0 -0.0383333 0
0.1 -0.0416667 0
0.0966667 -0.0416667 0
0.0933333 -0.0416667 0
0.09 -0.0416667 0
0.0866667 -0.0416667 0
0.0833333 -0.0416667 0
0.08 -0.0416667 0
0.0766667 -0.0416667 0
0.0733333 -0.0416667 0
0.07 -0.0416667 0
0.0666667 -0.0416667 0
0.0633333 -0.0416667 0
0.06 -0.0416667 0
0.0566667 -0.0416667 0
0.0533333 -0.0416667 0
0.05 -0.0416667 0
0.0466667 -0.0416667 0
0.0433333 -0.0416667 0
0.04 -0.0416667 0
0.0366667 -0.0416667 0
0.0333333 -0.0416667 0
0.03 -0.0416667 0
0.0266667 -0.0416667 0
0.0233333 -0.0416667 0
0.02 -0.0416667 0
0.0166667 -0.0416667 0
0.0133333 -0.0416667 0
0.01 -0.0416667 0
0.00666667 -0.0416667 0
0.00333333 -0.0416667 0
0 -0.0416667 0
0.1 -0.045 0
0.0966667 -0.045 0
0.0933333 -0.045 0
0.09 -0.045 0
0.0866667 -0.045 0
0.0833333 -0.045 0
0.08 -0.045 0
0.0766667 -0.045 0
0.0733333 -0.045 0
0.07 -0.045 0
0.0666667 -0.045 0
0.0633333 -0.045 0
0.06 -0.045 0
0.0566667 -0.045 0
0.0533333 -0.045 0
0.05 -0.045 0
0.0466667 -0.045 0
0.0433333 -0.045 0
0.04 -0.045 0
0.0366667 -0.045 0
0.0333333 -0.045 0
0.03 -0.045 0
0.0266667 -0.045 0
0.0233333 -0.045 0
0.02 -0.045 0
0.0166667 -0.045 0
0.0133333 -0.045 0
0.01 -0.045 0
0.00666667 -0.045 0
0.00333333 -0.045 0
0 -0.045 0
0.1 -0.0483333 0
0.0966667 -0.0483333 0
0.0933333 -0.0483333 0
0.09 -0.0483333 0
0.0866667 -0.0483333 0
[...]
POINT_DATA 961
SCALARS Temp float 1
LOOKUP_TABLE default
890.218143
878.173702
866.840451
856.243383
846.405869
837.349655
829.094667
821.659128
815.059379
809.309974
804.423544
800.410823
797.280644
795.039882
793.693452
793.244313
793.693452
795.039883
797.280649
800.410829
804.423542
809.309981
815.059390
821.659133
829.094681
837.349658
846.405883
856.243387
866.840467
878.173737
890.218170
878.173720
865.660982
853.887084
842.877998
832.657998
823.249675
814.673730
806.949094
800.092745
794.119801
789.043384
784.874647
781.622766
779.294882
777.896102
777.429501
777.896103
779.294883
781.622771
784.874654
789.043382
794.119807
800.092756
806.949099
814.673745
823.249678
832.658012
842.878002
853.887101
865.661013
878.173738
866.840454
853.887073
841.698549
830.301771
819.721869
809.982227
801.104275
793.107613
786.009813
779.826529
774.571344
770.255803
766.889405
764.479544
763.031505
762.548472
763.031506
764.479545
766.889410
770.255809
774.571341
779.826536
786.009825
793.107618
801.104290
809.982229
819.721883
830.301775
841.698564
853.887101
866.840468
856.243376
842.877976
830.301761
818.542476
807.626049
797.576610
788.416269
780.165250
772.841685
766.461724
761.039383
756.586574
753.113099
750.626584
749.132487
748.634090
749.132487
750.626586
753.113104
756.586581
761.039380
766.461731
772.841697
780.165255
788.416285
797.576611
807.626062
818.542478
830.301774
842.878002
856.243387
846.405873
832.657987
819.721870
807.626061
796.397232
786.060201
776.637713
768.150569
760.617421
754.054880
748.477364
743.897126
740.324248
737.766576
736.229721
735.717061
736.229722
737.766577
740.324254
743.897133
748.477362
754.054888
760.617433
768.150574
776.637729
786.060202
796.397245
807.626063
819.721882
832.658012
846.405883
837.349652
823.249656
809.982220
797.576614
786.060193
775.458411
765.794594
757.090079
749.363992
742.633372
736.913005
732.215458
728.551072
725.927893
724.351676
723.825886
724.351676
725.927894
728.551077
732.215465
736.913002
742.633379
749.364004
757.090083
765.794610
775.458411
786.060205
797.576614
809.982231
823.249680
837.349661
829.094674
814.673721
801.104280
788.416286
776.637717
765.794607
755.910814
747.008158
739.106203
732.222375
726.371795
721.567319
717.819520
715.136630
713.524534
712.986775
713.524534
715.136631
717.819526
721.567326
726.371792
732.222382
739.106215
747.008163
755.910830
765.794607
776.637729
788.416285
801.104290
814.673745
829.094682
821.659129
806.949078
793.107610
780.165260
768.150566
757.090084
747.008150
737.927022
729.866656
722.844827
716.876962
711.976169
708.153239
705.416564
703.772150
703.223611
703.772151
705.416566
708.153244
711.976177
716.876958
722.844835
729.866669
737.927027
747.008165
757.090083
768.150577
780.165259
793.107620
806.949102
821.659136
815.059386
800.092735
786.009818
772.841703
760.617425
749.364005
739.106203
729.866664
721.665694
714.521377
708.449408
703.463127
699.573510
696.789097
695.115998
694.557890
695.115999
696.789098
699.573515
703.463135
708.449405
714.521384
721.665707
729.866669
739.106218
749.364004
760.617436
772.841701
786.009827
800.092759
815.059393
809.309974
794.119784
779.826526
766.461734
754.054876
742.633377
732.222366
722.844827
714.521368
707.270345
701.107686
696.046931
692.099218
689.273218
687.575130
687.008686
687.575131
689.273219
692.099224
696.046938
701.107683
707.270352
714.521381
722.844831
732.222381
742.633376
754.054887
766.461731
779.826535
794.119807
809.309981
804.423539
789.043361
774.571336
761.039387
748.477354
736.913004
726.371780
716.876955
708.449393
701.107680
694.867943
689.743892
685.746805
682.885459
681.166133
680.592604
681.166133
682.885460
685.746810
689.743899
694.867940
701.107687
708.449406
716.876959
726.371796
736.913003
748.477366
761.039384
774.571344
789.043385
804.423545
800.410825
784.874631
770.255802
756.586585
743.897124
732.215465
721.567311
711.976171
703.463120
696.046933
689.743900
684.567871
680.530238
677.639867
675.903099
675.323753
675.903100
677.639868
680.530243
684.567878
689.743897
696.046940
703.463133
711.976175
721.567327
732.215464
743.897135
756.586583
770.255810
784.874655
800.410831
797.280646
781.622750
766.889403
753.113109
740.324245
728.551078
717.819512
708.153240
699.573502
692.099220
685.746813
680.530237
676.460975
673.547962
671.797590
671.213705
671.797590
673.547963
676.460980
680.530244
685.746809
692.099227
699.573515
708.153244
717.819528
728.551077
740.324257
753.113107
766.889412
781.622773
797.280652
795.039880
779.294863
764.479539
750.626592
737.766570
725.927896
715.136619
705.416562
696.789086
689.273216
682.885464
677.639862
673.547958
670.618737
668.858626
668.271493
668.858627
670.618739
673.547964
677.639870
682.885460
689.273223
696.789099
705.416566
715.136635
725.927895
737.766581
750.626590
764.479548
779.294886
795.039887
793.693450
777.896083
763.031500
749.132495
736.229715
724.351679
713.524522
703.772148
695.115987
687.575128
681.166138
675.903095
671.797587
668.858626
667.092663
666.503577
667.092663
668.858628
671.797592
675.903103
681.166134
687.575136
695.116000
703.772153
713.524539
724.351678
736.229727
749.132493
763.031510
777.896107
793.693457
793.244312
777.429482
762.548468
748.634098
735.717055
723.825889
712.986764
703.223609
694.557879
687.008685
680.592610
675.323749
671.213702
668.271494
666.503578
665.913841
666.503579
668.271495
671.213709
675.323758
680.592607
687.008693
694.557893
703.223614
712.986781
723.825889
735.717067
748.634096
762.548478
777.429506
793.244319
793.693450
777.896083
763.031500
749.132495
736.229715
724.351679
713.524522
703.772148
695.115987
687.575128
681.166138
675.903095
671.797587
668.858627
667.092663
666.503578
667.092664
668.858628
671.797593
675.903104
681.166135
687.575136
695.116001
703.772153
713.524540
724.351679
736.229727
749.132493
763.031511
777.896108
793.693458
795.039880
779.294862
764.479539
750.626592
737.766569
725.927896
715.136618
705.416562
696.789086
689.273216
682.885464
677.639863
673.547959
670.618738
668.858627
668.271493
668.858627
670.618740
673.547965
677.639871
682.885461
689.273225
696.789100
705.416568
715.136636
725.927896
737.766583
750.626591
764.479549
779.294888
795.039889
797.280645
781.622749
766.889403
753.113109
740.324245
728.551078
717.819512
708.153240
699.573502
692.099220
685.746813
680.530237
676.460975
673.547963
671.797591
671.213706
671.797591
673.547964
676.460982
680.530246
685.746811
692.099229
699.573517
708.153246
717.819530
728.551079
740.324259
753.113109
766.889415
781.622775
797.280654
800.410824
784.874631
770.255801
756.586585
743.897123
732.215465
721.567311
711.976171
703.463120
696.046933
689.743901
684.567872
680.530239
677.639868
675.903101
675.323755
675.903102
677.639870
680.530245
684.567881
689.743899
696.046942
703.463135
711.976178
721.567330
732.215467
743.897138
756.586586
770.255814
784.874658
800.410834
804.423541
789.043363
774.571338
761.039389
748.477357
736.913007
726.371783
716.876958
708.449397
701.107683
694.867947
689.743896
685.746809
682.885464
681.166138
680.592609
681.166139
682.885466
685.746816
689.743905
694.867946
701.107693
708.449412
716.876966
726.371802
736.913010
748.477372
761.039391
774.571351
789.043391
804.423552
809.309970
794.119780
779.826522
766.461730
754.054872
742.633373
732.222362
722.844823
714.521365
707.270342
701.107683
696.046928
692.099216
689.273216
687.575128
687.008684
687.575129
689.273218
692.099223
696.046937
701.107682
707.270352
714.521381
722.844832
732.222382
742.633377
754.054889
766.461733
779.826537
794.119809
809.309983
815.059388
800.092737
786.009821
772.841705
760.617428
749.364008
739.106206
729.866669
721.665699
714.521382
708.449414
703.463133
699.573516
696.789104
695.116005
694.557897
695.116006
696.789106
699.573523
703.463143
708.449413
714.521393
721.665715
729.866678
739.106227
749.364014
760.617446
772.841710
786.009837
800.092768
815.059402
821.659123
806.949072
793.107605
780.165254
768.150560
757.090079
747.008145
737.927017
729.866652
722.844823
716.876958
711.976166
708.153236
705.416561
703.772148
703.223609
703.772149
705.416564
708.153243
711.976176
716.876958
722.844834
729.866669
737.927027
747.008167
757.090085
768.150579
780.165261
793.107623
806.949104
821.659139
829.094679
814.673726
801.104285
788.416292
776.637723
765.794614
755.910822
747.008166
739.106212
732.222384
726.371805
721.567329
717.819531
715.136641
713.524545
712.986787
713.524547
715.136644
717.819539
721.567339
726.371806
732.222395
739.106229
747.008177
755.910844
765.794622
776.637744
788.416300
801.104305
814.673759
829.094696
837.349649
823.249653
809.982218
797.576612
786.060191
775.458409
765.794594
757.090078
749.363992
742.633373
736.913006
732.215460
728.551074
725.927895
724.351679
723.825889
724.351680
725.927898
728.551082
732.215470
736.913007
742.633385
749.364010
757.090090
765.794617
775.458419
786.060213
797.576623
809.982240
823.249689
837.349670
846.405862
832.657975
819.721858
807.626050
796.397221
786.060191
776.637703
768.150560
760.617412
754.054871
748.477356
743.897118
740.324241
737.766569
736.229714
735.717054
736.229715
737.766572
740.324248
743.897129
748.477358
754.054884
760.617430
768.150572
776.637727
786.060202
796.397245
807.626064
819.721884
832.658014
846.405886
856.243374
842.877974
830.301760
818.542475
807.626050
797.576612
788.416272
780.165254
772.841689
766.461729
761.039388
756.586580
753.113105
750.626591
749.132494
748.634098
749.132496
750.626594
753.113113
756.586590
761.039390
766.461742
772.841708
780.165267
788.416297
797.576624
807.626076
818.542492
830.301789
842.878017
856.243403
866.840440
853.887059
841.698536
830.301759
819.721858
809.982217
801.104265
793.107604
786.009805
779.826521
774.571337
770.255796
766.889399
764.479538
763.031500
762.548467
763.031501
764.479541
766.889407
770.255806
774.571339
779.826534
786.009824
793.107617
801.104291
809.982231
819.721885
830.301779
841.698570
853.887109
866.840476
878.173718
865.660981
853.887086
842.878002
832.658004
823.249683
814.673738
806.949104
800.092755
794.119812
789.043396
784.874659
781.622779
779.294896
777.896116
777.429515
777.896118
779.294899
781.622787
784.874670
789.043398
794.119824
800.092773
806.949117
814.673763
823.249697
832.658032
842.878024
853.887124
865.661039
878.173769
890.218121
878.173685
866.840440
856.243374
846.405863
837.349650
829.094662
821.659124
815.059376
809.309972
804.423542
800.410821
797.280643
795.039881
793.693452
793.244314
793.693453
795.039884
797.280651
800.410831
804.423544
809.309984
815.059394
821.659137
829.094687
837.349664
846.405890
856.243396
866.840479
878.173753
890.218195
