# vtk DataFile Version 2.0
Unstructured Grid Example
ASCII
DATASET UNSTRUCTURED_GRID

POINTS 961 float
0.1 0.005 0
0.0966667 0.005 0
0.0933333 0.005 0
0.09 0.005 0
0.0866667 0.005 0
0.0833333 0.005 0
0.08 0.005 0
0.0766667 0.005 0
0.0733333 0.005 0
0.07 0.005 0
0.0666667 0.005 0
0.0633333 0.005 0
0.06 0.005 0
0.0566667 0.005 0
0.0533333 0.005 0
0.05 0.005 0
0.0466667 0.005 0
0.0433333 0.005 0
0.04 0.005 0
0.0366667 0.005 0
0.0333333 0.005 0
0.03 0.005 0
0.0266667 0.005 0
0.0233333 0.005 0
0.02 0.005 0
0.0166667 0.005 0
0.0133333 0.005 0
0.01 0.005 0
0.00666667 0.005 0
0.00333333 0.005 0
0 0.005 0
0.1 0.00166667 0
0.0966667 0.00166667 0
0.0933333 0.00166667 0
0.09 0.00166667 0
0.0866667 0.00166667 0
0.0833333 0.00166667 0
0.08 0.00166667 0
0.0766667 0.00166667 0
0.0733333 0.00166667 0
0.07 0.00166667 0
0.0666667 0.00166667 0
0.0633333 0.00166667 0
0.06 0.00166667 0
0.0566667 0.00166667 0
0.0533333 0.00166667 0
0.05 0.00166667 0
0.0466667 0.00166667 0
0.0433333 0.00166667 0
0.04 0.00166667 0
0.0366667 0.00166667 0
0.0333333 0.00166667 0
0.03 0.00166667 0
0.0266667 0.00166667 0
0.0233333 0.00166667 0
0.02 0.00166667 0
0.0166667 0.00166667 0
0.0133333 0.00166667 0
0.01 0.00166667 0
0.00666667 0.00166667 0
0.00333333 0.00166667 0
0 0.00166667 0
0.1 -0.00166667 0
0.0966667 -0.00166667 0
0.0933333 -0.00166667 0
0.09 -0.00166667 0
0.0866667 -0.00166667 0
0.0833333 -0.00166667 0
0.08 -0.00166667 0
0.0766667 -0.00166667 0
0.0733333 -0.00166667 0
0.07 -0.00166667 0
0.0666667 -0.00166667 0
0.0633333 -0.00166667 0
0.06 -0.00166667 0
0.0566667 -0.00166667 0
0.0533333 -0.00166667 0
0.05 -0.00166667 0
0.0466667 -0.00166667 0
0.0433333 -0.00166667 0
0.04 -0.00166667 0
0.0366667 -0.00166667 0
0.0333333 -0.00166667 0
0.03 -0.00166667 0
0.0266667 -0.00166667 0
0.0233333 -0.00166667 0
0.02 -0.00166667 0
0.0166667 -0.00166667 0
0.0133333 -0.00166667 0
0.01 -0.00166667 0
0.00666667 -0.00166667 0
0.00333333 -0.00166667 0
0 -0.00166667 0
0.1 -0.005 0
0.0966667 -0.005 0
0.0933333 -0.005 0
0.09 -0.005 0
0.0866667 -0.005 0
0.0833333 -0.005 0
0.08 -0.005 0
0.0766667 -0.005 0
0.0733333 -0.005 0
0.07 -0.005 0
0.0666667 -0.005 0
0.0633333 -0.005 0
0.06 -0.005 0
0.0566667 -0.005 0
0.0533333 -0.005 0
0.05 -0.005 0
0.0466667 -0.005 0
0.0433333 -0.005 0
0.04 -0.005 0
0.0366667 -0.005 0
0.0333333 -0.005 0
0.03 -0.005 0
0.0266667 -0.005 0
0.0233333 -0.005 0
0.02 -0.005 0
0.0166667 -0.005 0
0.0133333 -0.005 0
0.01 -0.005 0
0.00666667 -0.005 0
0.00333333 -0.005 0
0 -0.005 0
0.1 -0.00833333 0
0.0966667 -0.00833333 0
0.0933333 -0.00833333 0
0.09 -0.00833333 0
0.0866667 -0.00833333 0
0.0833333 -0.00833333 0
0.08 -0.00833333 0
0.0766667 -0.00833333 0
0.0733333 -0.00833333 0
0.07 -0.00833333 0
0.0666667 -0.00833333 0
0.0633333 -0.00833333 0
0.06 -0.00833333 0
0.0566667 -0.00833333 0
0.0533333 -0.00833333 0
0.05 -0.00833333 0
0.0466667 -0.00833333 0
0.0433333 -0.00833333 0
0.04 -0.00833333 0
0.0366667 -0.00833333 0
0.0333333 -0.00833333 0
0.03 -0.00833333 0
0.0266667 -0.00833333 0
0.0233333 -0.00833333 0
0.02 -0.00833333 0
0.0166667 -0.00833333 0
0.0133333 -0.00833333 0
0.01 -0.00833333 0
0.00666667 -0.00833333 0
0.00333333 -0.00833333 0
0 -0.00833333 0
0.1 -0.0116667 0
0.0966667 -0.0116667 0
0.0933333 -0.0116667 0
0.09 -0.0116667 0
0.0866667 -0.0116667 0
0.0833333 -0.0116667 0
0.08 -0.0116667 0
0.0766667 -0.0116667 0
0.0733333 -0.0116667 0
0.07 -0.0116667 0
0.0666667 -0.0116667 0
0.0633333 -0.0116667 0
0.06 -0.0116667 0
0.0566667 -0.0116667 0
0.0533333 -0.0116667 0
0.05 -0.0116667 0
0.0466667 -0.0116667 0
0.0433333 -0.0116667 0
0.04 -0.0116667 0
0.0366667 -0.0116667 0
0.0333333 -0.0116667 0
0.03 -0.0116667 0
0.0266667 -0.0116667 0
0.0233333 -0.0116667 0
0.02 -0.0116667 0
0.0166667 -0.0116667 0
0.0133333 -0.0116667 0
0.01 -0.0116667 0
0.00666667 -0.0116667 0
0.00333333 -0.0116667 0
0 -0.0116667 0
0.1 -0.015 0
0.0966667 -0.015 0
0.0933333 -0.015 0
0.09 -0.015 0
0.0866667 -0.015 0
0.0833333 -0.015 0
0.08 -0.015 0
0.0766667 -0.015 0
0.0733333 -0.015 0
0.07 -0.015 0
0.0666667 -0.015 0
0.0633333 -0.015 0
0.06 -0.015 0
0.0566667 -0.015 0
0.0533333 -0.015 0
0.05 -0.015 0
0.0466667 -0.015 0
0.0433333 -0.015 0
0.04 -0.015 0
0.0366667 -0.015 0
0.0333333 -0.015 0
0.03 -0.015 0
0.0266667 -0.015 0
0.0233333 -0.015 0
0.02 -0.015 0
0.0166667 -0.015 0
0.0133333 -0.015 0
0.01 -0.015 0
0.00666667 -0.015 0
0.00333333 -0.015 0
0 -0.015 0
0.1 -0.0183333 0
0.0966667 -0.0183333 0
0.0933333 -0.0183333 0
0.09 -0.0183333 0
0.0866667 -0.0183333 0
0.0833333 -0.0183333 0
0.08 -0.0183333 0
0.0766667 -0.0183333 0
0.0733333 -0.0183333 0
0.07 -0.0183333 0
0.0666667 -0.0183333 0
0.0633333 -0.0183333 0
0.06 -0.0183333 0
0.0566667 -0.0183333 0
0.0533333 -0.0183333 0
0.05 -0.0183333 0
0.0466667 -0.0183333 0
0.0433333 -0.0183333 0
0.04 -0.0183333 0
0.0366667 -0.0183333 0
0.0333333 -0.0183333 0
0.03 -0.0183333 0
0.0266667 -0.0183333 0
0.0233333 -0.0183333 0
0.02 -0.0183333 0
0.0166667 -0.0183333 0
0.0133333 -0.0183333 0
0.01 -0.0183333 0
0.00666667 -0.0183333 0
0.00333333 -0.0183333 0
0 -0.0183333 0
0.1 -0.0216667 0
0.0966667 -0.0216667 0
0.0933333 -0.0216667 0
0.09 -0.0216667 0
0.0866667 -0.0216667 0
0.0833333 -0.0216667 0
0.08 -0.0216667 0
0.0766667 -0.0216667 0
0.0733333 -0.0216667 0
0.07 -0.0216667 0
0.0666667 -0.0216667 0
0.0633333 -0.0216667 0
0.06 -0.0216667 0
0.0566667 -0.0216667 0
0.0533333 -0.0216667 0
0.05 -0.0216667 0
0.0466667 -0.0216667 0
0.0433333 -0.0216667 0
0.04 -0.0216667 0
0.0366667 -0.0216667 0
0.0333333 -0.0216667 0
0.03 -0.0216667 0
0.0266667 -0.0216667 0
0.0233333 -0.0216667 0
0.02 -0.0216667 0
0.0166667 -0.0216667 0
0.0133333 -0.0216667 0
0.01 -0.0216667 0
0.00666667 -0.0216667 0
0.00333333 -0.0216667 0
0 -0.0216667 0
0.1 -0.025 0
0.0966667 -0.025 0
0.0933333 -0.025 0
0.09 -0.025 0
0.0866667 -0.025 0
0.0833333 -0.025 0
0.08 -0.025 0
0.0766667 -0.025 0
0.0733333 -0.025 0
0.07 -0.025 0
0.0666667 -0.025 0
0.0633333 -0.025 0
0.06 -0.025 0
0.0566667 -0.025 0
0.0533333 -0.025 0
0.05 -0.025 0
0.0466667 -0.025 0
0.0433333 -0.025 0
0.04 -0.025 0
0.0366667 -0.025 0
0.0333333 -0.025 0
0.03 -0.025 0
0.0266667 -0.025 0
0.0233333 -0.025 0
0.02 -0.025 0
0.0166667 -0.025 0
0.0133333 -0.025 0
0.01 -0.025 0
0.00666667 -0.025 0
0.00333333 -0.025 0
0 -0.025 0
0.1 -0.0283333 0
0.0966667 -0.0283333 0
0.0933333 -0.0283333 0
0.09 -0.0283333 0
0.0866667 -0.0283333 0
0.0833333 -0.0283333 0
0.08 -0.0283333 0
0.0766667 -0.0283333 0
0.0733333 -0.0283333 0
0.07 -0.0283333 0
0.0666667 -0.0283333 0
0.0633333 -0.0283333 0
0.06 -0.0283333 0
0.0566667 -0.0283333 0
0.0533333 -0.0283333 0
0.05 -0.0283333 0
0.0466667 -0.0283333 0
0.0433333 -0.0283333 0
0.04 -0.0283333 0
0.0366667 -0.0283333 0
0.0333333 -0.0283333 0
0.03 -0.0283333 0
0.0266667 -0.0283333 0
0.0233333 -0.0283333 0
0.02 -0.0283333 0
0.0166667 -0.0283333 0
0.0133333 -0.0283333 0
0.01 -0.0283333 0
0.00666667 -0.0283333 0
0.00333333 -0.0283333 0
0 -0.0283333 0
0.1 -0.0316667 0
0.0966667 -0.0316667 0
0.0933333 -0.0316667 0
0.09 -0.0316667 0
0.0866667 -0.0316667 0
0.0833333 -0.0316667 0
0.08 -0.0316667 0
0.0766667 -0.0316667 0
0.0733333 -0.0316667 0
0.07 -0.0316667 0
0.0666667 -0.0316667 0
0.0633333 -0.0316667 0
0.06 -0.0316667 0
0.0566667 -0.0316667 0
0.0533333 -0.0316667 0
0.05 -0.0316667 0
0.0466667 -0.0316667 0
0.0433333 -0.0316667 0
0.04 -0.0316667 0
0.0366667 -0.0316667 0
0.0333333 -0.0316667 0
0.03 -0.0316667 0
0.0266667 -0.0316667 0
0.0233333 -0.0316667 0
0.02 -0.0316667 0
0.0166667 -0.0316667 0
0.0133333 -0.0316667 0
0.01 -0.0316667 0
0.00666667 -0.0316667 0
0.00333333 -0.0316667 0
0 -0.0316667 0
0.1 -0.035 0
0.0966667 -0.035 0
0.0933333 -0.035 0
0.09 -0.035 0
0.0866667 -0.035 0
0.0833333 -0.035 0
0.08 -0.035 0
0.0766667 -0.035 0
0.0733333 -0.035 0
0.07 -0.035 0
0.0666667 -0.035 0
0.0633333 -0.035 0
0.06 -0.035 0
0.0566667 -0.035 0
0.0533333 -0.035 0
0.05 -0.035 0
0.0466667 -0.035 0
0.0433333 -0.035 0
0.04 -0.035 0
0.0366667 -0.035 0
0.0333333 -0.035 0
0.03 -0.035 0
0.0266667 -0.035 0
0.0233333 -0.035 0
0.02 -0.035 0
0.0166667 -0.035 0
0.0133333 -0.035 0
0.01 -0.035 0
0.00666667 -0.035 0
0.00333333 -0.035 0
0 -0.035 0
0.1 -0.0383333 0
0.0966667 -0.0383333 0
0.0933333 -0.0383333 0
0.09 -0.0383333 0
0.0866667 -0.0383333 0
0.0833333 -0.0383333 0
0.08 -0.0383333 0
0.0766667 -0.0383333 0
0.0733333 -0.0383333 0
0.07 -0.0383333 0
0.0666667 -0.0383333 0
0.0633333 -0.0383333 0
0.06 -0.0383333 0
0.0566667 -0.0383333 0
0.0533333 -0.0383333 0
0.05 -0.0383333 0
0.0466667 -0.0383333 0
0.0433333 -0.0383333 0
0.04 -0.0383333 0
0.0366667 -0.0383333 0
0.0333333 -0.0383333 0
0.03 -0.0383333 0
0.0266667 -0.0383333 0
0.0233333 -0.0383333 0
0.02 -0.0383333 0
0.0166667 -0.0383333 0
0.0133333 -0.0383333 0
0.01 -0.0383333 0
0.00666667 -0.0383333 0
0.00333333 -0.0383333 0
0 -0.0383333 0
0.1 -0.0416667 0
0.0966667 -0.0416667 0
0.0933333 -0.0416667 0
0.09 -0.0416667 0
0.0866667 -0.0416667 0
0.0833333 -0.0416667 0
0.08 -0.0416667 0
0.0766667 -0.0416667 0
0.0733333 -0.0416667 0
0.07 -0.0416667 0
0.0666667 -0.0416667 0
0.0633333 -0.0416667 0
0.06 -0.0416667 0
0.0566667 -0.0416667 0
0.0533333 -0.0416667 0
0.05 -0.0416667 0
0.0466667 -0.0416667 0
0.0433333 -0.0416667 0
0.04 -0.0416667 0
0.0366667 -0.0416667 0
0.0333333 -0.0416667 0
0.03 -0.0416667 0
0.0266667 -0.0416667 0
0.0233333 -0.0416667 0
0.02 -0.0416667 0
0.0166667 -0.0416667 0
0.0133333 -0.0416667 0
0.01 -0.0416667 0
0.00666667 -0.0416667 0
0.00333333 -0.0416667 0
0 -0.0416667 0
0.1 -0.045 0
0.0966667 -0.045 0
0.0933333 -0.045 0
0.09 -0.045 0
0.0866667 -0.045 0
0.0833333 -0.045 0
0.08 -0.045 0
0.0766667 -0.045 0
0.0733333 -0.045 0
0.07 -0.045 0
0.0666667 -0.045 0
0.0633333 -0.045 0
0.06 -0.045 0
0.0566667 -0.045 0
0.0533333 -0.045 0
0.05 -0.045 0
0.0466667 -0.045 0
0.0433333 -0.045 0
0.04 -0.045 0
0.0366667 -0.045 0
0.0333333 -0.045 0
0.03 -0.045 0
0.0266667 -0.045 0
0.0233333 -0.045 0
0.02 -0.045 0
0.0166667 -0.045 0
0.0133333 -0.045 0
0.01 -0.045 0
0.00666667 -0.045 0
0.00333333 -0.045 0
0 -0.045 0
0.1 -0.0483333 0
0.0966667 -0.0483333 0
0.0933333 -0.0483333 0
0.09 -0.0483333 0
0.0866667 -0.0483333 0
[...]
POINT_DATA 961
SCALARS Temp float 1
LOOKUP_TABLE default
677.410800
657.130609
638.126793
620.438670
604.099042
589.134500
575.565594
563.407661
552.671267
543.363192
535.487073
529.044298
524.034817
520.457768
518.312085
517.596958
518.312085
520.457769
524.034824
529.044307
535.487068
543.363201
552.671283
563.407667
575.565615
589.134501
604.099061
620.438675
638.126817
657.130665
677.410843
657.130640
636.063424
616.322112
597.947559
580.973830
565.428548
551.333063
538.703305
527.550252
517.880948
509.699169
503.006360
497.802469
494.086599
491.857645
491.114765
491.857645
494.086600
497.802476
503.006370
509.699164
517.880957
527.550269
538.703311
551.333085
565.428549
580.973850
597.947563
616.322136
636.063472
657.130667
638.126798
616.322093
595.889699
576.871903
559.303965
543.214476
528.625531
515.553623
504.010111
494.002289
485.534068
478.606943
473.220861
469.374896
467.067905
466.299017
467.067906
469.374897
473.220868
478.606952
485.534062
494.002299
504.010128
515.553628
528.625554
543.214476
559.303985
576.871906
595.889720
616.322136
638.126819
620.438659
597.947522
576.871886
557.255373
539.134351
522.538313
507.490053
494.006583
482.099623
471.776699
463.041845
455.896608
450.340935
446.373870
443.994237
443.201138
443.994238
446.373871
450.340942
455.896618
463.041839
471.776708
482.099640
494.006588
507.490076
522.538313
539.134370
557.255373
576.871905
597.947562
620.438675
604.099049
580.973810
559.303968
539.134372
520.502419
503.438434
487.965856
474.102179
461.859458
451.245432
442.264254
434.917515
429.205164
425.126221
422.679478
421.864011
422.679478
425.126222
429.205171
434.917525
442.264247
451.245441
461.859475
474.102185
487.965879
503.438432
520.502436
539.134370
559.303984
580.973849
604.099062
589.134494
565.428515
543.214465
522.538321
503.438420
485.945852
470.084645
455.872737
443.322489
432.441837
423.235043
415.703743
409.847884
405.666467
403.158254
402.322301
403.158254
405.666468
409.847891
415.703752
423.235037
432.441846
443.322506
455.872742
470.084667
485.945849
503.438437
522.538318
543.214480
565.428552
589.134505
575.565606
551.333048
528.625540
507.490082
487.965863
470.084666
453.871058
439.343378
426.514263
415.391834
405.980448
398.281782
392.295786
388.021442
385.457486
384.602954
385.457486
388.021443
392.295793
398.281791
405.980441
415.391843
426.514280
439.343382
453.871080
470.084663
487.965879
507.490077
528.625553
551.333084
575.565616
563.407662
538.703279
515.553620
494.006599
474.102173
455.872746
439.343364
424.532728
411.453728
400.114643
390.519923
382.671279
376.568667
372.211049
369.597141
368.725960
369.597141
372.211050
376.568674
382.671289
390.519916
400.114652
411.453745
424.532732
439.343386
455.872741
474.102189
494.006593
515.553631
538.703314
563.407671
552.671279
527.550237
504.010120
482.099652
461.859465
443.322510
426.514263
411.453741
398.154057
386.623634
376.867001
368.885904
362.680299
358.249137
355.591111
354.705227
355.591112
358.249138
362.680307
368.885914
376.866994
386.623643
398.154074
411.453745
426.514284
443.322505
461.859479
482.099645
504.010131
527.550271
552.671287
543.363194
517.880920
494.002286
471.776715
451.245426
432.441846
415.391820
400.114643
386.623620
374.927301
365.030284
356.934343
350.639439
346.144509
343.448232
342.549598
343.448232
346.144510
350.639446
356.934353
365.030276
374.927310
386.623637
400.114646
415.391841
432.441840
451.245440
471.776707
494.002296
517.880955
543.363201
535.487066
509.699132
485.534055
463.041853
442.264238
423.235043
405.980424
390.519913
376.866977
365.030273
355.014459
346.821334
340.450861
335.901969
333.173321
332.263899
333.173322
335.901969
340.450868
346.821344
355.014451
365.030282
376.866994
390.519916
405.980445
423.235036
442.264252
463.041844
485.534065
509.699167
535.487072
529.044302
503.006335
478.606942
455.896628
434.917512
415.703755
398.281771
382.671283
368.885893
356.934346
346.821348
338.548719
332.116426
327.523388
324.768259
323.850011
324.768259
327.523388
332.116433
338.548729
346.821340
356.934355
368.885910
382.671286
398.281792
415.703748
434.917526
455.896619
478.606952
503.006369
529.044309
524.034820
497.802442
473.220859
450.340954
429.205159
409.847895
392.295774
376.568669
362.680287
350.639441
340.450874
332.116425
325.636060
321.008695
318.232974
317.307863
318.232975
321.008696
325.636068
332.116435
340.450866
350.639450
362.680304
376.568672
392.295796
409.847889
429.205173
450.340944
473.220869
497.802477
524.034827
520.457766
494.086567
469.374890
446.373885
425.126211
405.666473
388.021425
372.211046
358.249119
346.144506
335.901976
327.523381
321.008690
316.356811
313.566386
312.636374
313.566387
316.356812
321.008697
327.523391
335.901968
346.144515
358.249137
372.211049
388.021446
405.666467
425.126226
446.373876
469.374900
494.086602
520.457773
518.312084
491.857614
467.067899
443.994253
422.679469
403.158261
385.457469
369.597138
355.591095
343.448230
333.173330
324.768253
318.232970
313.566387
310.767141
309.834189
310.767142
313.566388
318.232978
324.768264
333.173322
343.448239
355.591112
369.597142
385.457491
403.158255
422.679484
443.994244
467.067910
491.857649
518.312091
517.596958
491.114735
466.299011
443.201154
421.864003
402.322308
384.602938
368.725959
354.705211
342.549597
332.263909
323.850006
317.307860
312.636376
309.834190
308.900258
309.834191
312.636377
317.307868
323.850017
332.263901
342.549607
354.705229
368.725962
384.602960
402.322302
421.864018
443.201146
466.299022
491.114771
517.596965
518.312084
491.857614
467.067899
443.994252
422.679469
403.158261
385.457469
369.597138
355.591095
343.448230
333.173330
324.768253
318.232970
313.566387
310.767142
309.834190
310.767142
313.566389
318.232978
324.768264
333.173323
343.448240
355.591113
369.597143
385.457492
403.158256
422.679485
443.994245
467.067911
491.857650
518.312092
520.457766
494.086567
469.374890
446.373884
425.126211
405.666473
388.021424
372.211046
358.249120
346.144506
335.901977
327.523382
321.008690
316.356812
313.566387
312.636375
313.566388
316.356813
321.008699
327.523393
335.901970
346.144517
358.249139
372.211051
388.021448
405.666469
425.126228
446.373878
469.374902
494.086605
520.457775
524.034820
497.802442
473.220859
450.340953
429.205159
409.847895
392.295774
376.568669
362.680288
350.639442
340.450875
332.116425
325.636061
321.008696
318.232976
317.307865
318.232976
321.008698
325.636070
332.116437
340.450868
350.639453
362.680307
376.568675
392.295799
409.847892
429.205177
450.340948
473.220873
497.802480
524.034830
529.044302
503.006334
478.606942
455.896628
434.917511
415.703755
398.281771
382.671283
368.885894
356.934347
346.821349
338.548720
332.116427
327.523389
324.768261
323.850013
324.768262
327.523391
332.116436
338.548732
346.821343
356.934359
368.885914
382.671290
398.281796
415.703753
434.917530
455.896624
478.606957
503.006374
529.044313
535.487069
509.699136
485.534059
463.041857
442.264242
423.235047
405.980429
390.519918
376.866982
365.030280
355.014465
346.821341
340.450868
335.901976
333.173329
332.263908
333.173330
335.901978
340.450878
346.821353
355.014460
365.030292
376.867004
390.519926
405.980456
423.235047
442.264262
463.041855
485.534076
509.699177
535.487082
543.363187
517.880914
494.002279
471.776709
451.245419
432.441840
415.391814
400.114637
386.623615
374.927296
365.030279
356.934338
350.639435
346.144505
343.448228
342.549595
343.448229
346.144507
350.639444
356.934351
365.030275
374.927309
386.623637
400.114647
415.391842
432.441841
451.245442
471.776709
494.002298
517.880957
543.363203
552.671283
527.550240
504.010124
482.099657
461.859470
443.322516
426.514269
411.453748
398.154064
386.623642
376.867010
368.885913
362.680309
358.249147
355.591122
354.705238
355.591123
358.249150
362.680319
368.885926
376.867007
386.623656
398.154087
411.453759
426.514299
443.322520
461.859494
482.099659
504.010145
527.550286
552.671301
563.407654
538.703270
515.553610
494.006590
474.102165
455.872737
439.343356
424.532721
411.453721
400.114637
390.519917
382.671274
376.568662
372.211045
369.597136
368.725956
369.597138
372.211047
376.568672
382.671287
390.519914
400.114652
411.453745
424.532733
439.343387
455.872743
474.102191
494.006596
515.553635
538.703318
563.407675
575.565614
551.333056
528.625549
507.490091
487.965873
470.084678
453.871071
439.343391
426.514278
415.391849
405.980464
398.281798
392.295804
388.021460
385.457505
384.602973
385.457506
388.021463
392.295814
398.281813
405.980462
415.391865
426.514303
439.343405
453.871104
470.084686
487.965903
507.490101
528.625577
551.333108
575.565639
589.134489
565.428511
543.214461
522.538318
503.438417
485.945850
470.084644
455.872737
443.322489
432.441839
423.235045
415.703745
409.847887
405.666471
403.158258
402.322306
403.158260
405.666474
409.847898
415.703760
423.235045
432.441855
443.322515
455.872752
470.084678
485.945861
503.438450
522.538331
543.214494
565.428566
589.134519
604.099030
580.973791
559.303949
539.134353
520.502401
503.438417
487.965840
474.102164
461.859443
451.245418
442.264240
434.917502
429.205151
425.126209
422.679466
421.864000
422.679468
425.126212
429.205162
434.917516
442.264240
451.245435
461.859470
474.102180
487.965875
503.438431
520.502436
539.134371
559.303986
580.973852
604.099066
620.438656
597.947519
576.871885
557.255373
539.134353
522.538317
507.490058
494.006589
482.099630
471.776707
463.041854
455.896618
450.340945
446.373882
443.994250
443.201151
443.994251
446.373885
450.340956
455.896633
463.041855
471.776725
482.099657
494.006607
507.490095
522.538333
539.134391
557.255396
576.871929
597.947587
620.438700
638.126775
616.322070
595.889677
576.871884
559.303948
543.214460
528.625517
515.553609
504.010098
494.002277
485.534056
478.606932
473.220851
469.374887
467.067896
466.299008
467.067898
469.374890
473.220862
478.606947
485.534058
494.002295
504.010125
515.553627
528.625554
543.214478
559.303989
576.871912
595.889729
616.322149
638.126832
657.130636
636.063422
616.322115
597.947566
580.973840
565.428561
551.333077
538.703322
527.550270
517.880967
509.699189
503.006381
497.802491
494.086621
491.857668
491.114789
491.857670
494.086625
497.802501
503.006396
509.699191
517.880984
527.550297
538.703340
551.333115
565.428580
580.973882
597.947598
616.322174
636.063516
657.130718
677.410764
657.130580
638.126776
620.438657
604.099031
589.134491
575.565587
563.407655
552.671262
543.363189
535.487070
529.044296
524.034816
520.457767
518.312085
517.596959
518.312086
520.457770
524.034826
529.044310
535.487071
543.363206
552.671288
563.407673
575.565623
589.134510
604.099073
620.438690
638.126836
657.130691
677.410885
