# vtk DataFile Version 2.0
Unstructured Grid Example
ASCII
DATASET UNSTRUCTURED_GRID

POINTS 961 float
0.1 0.005 0
0.0966667 0.005 0
0.0933333 0.005 0
0.09 0.005 0
0.0866667 0.005 0
0.0833333 0.005 0
0.08 0.005 0
0.0766667 0.005 0
0.0733333 0.005 0
0.07 0.005 0
0.0666667 0.005 0
0.0633333 0.005 0
0.06 0.005 0
0.0566667 0.005 0
0.0533333 0.005 0
0.05 0.005 0
0.0466667 0.005 0
0.0433333 0.005 0
0.04 0.005 0
0.0366667 0.005 0
0.0333333 0.005 0
0.03 0.005 0
0.0266667 0.005 0
0.0233333 0.005 0
0.02 0.005 0
0.0166667 0.005 0
0.0133333 0.005 0
0.01 0.005 0
0.00666667 0.005 0
0.00333333 0.005 0
0 0.005 0
0.1 0.00166667 0
0.0966667 0.00166667 0
0.0933333 0.00166667 0
0.09 0.00166667 0
0.0866667 0.00166667 0
0.0833333 0.00166667 0
0.08 0.00166667 0
0.0766667 0.00166667 0
0.0733333 0.00166667 0
0.07 0.00166667 0
0.0666667 0.00166667 0
0.0633333 0.00166667 0
0.06 0.00166667 0
0.0566667 0.00166667 0
0.0533333 0.00166667 0
0.05 0.00166667 0
0.0466667 0.00166667 0
0.0433333 0.00166667 0
0.04 0.00166667 0
0.0366667 0.00166667 0
0.0333333 0.00166667 0
0.03 0.00166667 0
0.0266667 0.00166667 0
0.0233333 0.00166667 0
0.02 0.00166667 0
0.0166667 0.00166667 0
0.0133333 0.00166667 0
0.01 0.00166667 0
0.00666667 0.00166667 0
0.00333333 0.00166667 0
0 0.00166667 0
0.1 -0.00166667 0
0.0966667 -0.00166667 0
0.0933333 -0.00166667 0
0.09 -0.00166667 0
0.0866667 -0.00166667 0
0.0833333 -0.00166667 0
0.08 -0.00166667 0
0.0766667 -0.00166667 0
0.0733333 -0.00166667 0
0.07 -0.00166667 0
0.0666667 -0.00166667 0
0.0633333 -0.00166667 0
0.06 -0.00166667 0
0.0566667 -0.00166667 0
0.0533333 -0.00166667 0
0.05 -0.00166667 0
0.0466667 -0.00166667 0
0.0433333 -0.00166667 0
0.04 -0.00166667 0
0.0366667 -0.00166667 0
0.0333333 -0.00166667 0
0.03 -0.00166667 0
0.0266667 -0.00166667 0
0.0233333 -0.00166667 0
0.02 -0.00166667 0
0.0166667 -0.00166667 0
0.0133333 -0.00166667 0
0.01 -0.00166667 0
0.00666667 -0.00166667 0
0.00333333 -0.00166667 0
0 -0.00166667 0
0.1 -0.005 0
0.0966667 -0.005 0
0.0933333 -0.005 0
0.09 -0.005 0
0.0866667 -0.005 0
0.0833333 -0.005 0
0.08 -0.005 0
0.0766667 -0.005 0
0.0733333 -0.005 0
0.07 -0.005 0
0.0666667 -0.005 0
0.0633333 -0.005 0
0.06 -0.005 0
0.0566667 -0.005 0
0.0533333 -0.005 0
0.05 -0.005 0
0.0466667 -0.005 0
0.0433333 -0.005 0
0.04 -0.005 0
0.0366667 -0.005 0
0.0333333 -0.005 0
0.03 -0.005 0
0.0266667 -0.005 0
0.0233333 -0.005 0
0.02 -0.005 0
0.0166667 -0.005 0
0.0133333 -0.005 0
0.01 -0.005 0
0.00666667 -0.005 0
0.00333333 -0.005 0
0 -0.005 0
0.1 -0.00833333 0
0.0966667 -0.00833333 0
0.0933333 -0.00833333 0
0.09 -0.00833333 0
0.0866667 -0.00833333 0
0.0833333 -0.00833333 0
0.08 -0.00833333 0
0.0766667 -0.00833333 0
0.0733333 -0.00833333 0
0.07 -0.00833333 0
0.0666667 -0.00833333 0
0.0633333 -0.00833333 0
0.06 -0.00833333 0
0.0566667 -0.00833333 0
0.0533333 -0.00833333 0
0.05 -0.00833333 0
0.0466667 -0.00833333 0
0.0433333 -0.00833333 0
0.04 -0.00833333 0
0.0366667 -0.00833333 0
0.0333333 -0.00833333 0
0.03 -0.00833333 0
0.0266667 -0.00833333 0
0.0233333 -0.00833333 0
0.02 -0.00833333 0
0.0166667 -0.00833333 0
0.0133333 -0.00833333 0
0.01 -0.00833333 0
0.00666667 -0.00833333 0
0.00333333 -0.00833333 0
0 -0.00833333 0
0.1 -0.0116667 0
0.0966667 -0.0116667 0
0.0933333 -0.0116667 0
0.09 -0.0116667 0
0.0866667 -0.0116667 0
0.0833333 -0.0116667 0
0.08 -0.0116667 0
0.0766667 -0.0116667 0
0.0733333 -0.0116667 0
0.07 -0.0116667 0
0.0666667 -0.0116667 0
0.0633333 -0.0116667 0
0.06 -0.0116667 0
0.0566667 -0.0116667 0
0.0533333 -0.0116667 0
0.05 -0.0116667 0
0.0466667 -0.0116667 0
0.0433333 -0.0116667 0
0.04 -0.0116667 0
0.0366667 -0.0116667 0
0.0333333 -0.0116667 0
0.03 -0.0116667 0
0.0266667 -0.0116667 0
0.0233333 -0.0116667 0
0.02 -0.0116667 0
0.0166667 -0.0116667 0
0.0133333 -0.0116667 0
0.01 -0.0116667 0
0.00666667 -0.0116667 0
0.00333333 -0.0116667 0
0 -0.0116667 0
0.1 -0.015 0
0.0966667 -0.015 0
0.0933333 -0.015 0
0.09 -0.015 0
0.0866667 -0.015 0
0.0833333 -0.015 0
0.08 -0.015 0
0.0766667 -0.015 0
0.0733333 -0.015 0
0.07 -0.015 0
0.0666667 -0.015 0
0.0633333 -0.015 0
0.06 -0.015 0
0.0566667 -0.015 0
0.0533333 -0.015 0
0.05 -0.015 0
0.0466667 -0.015 0
0.0433333 -0.015 0
0.04 -0.015 0
0.0366667 -0.015 0
0.0333333 -0.015 0
0.03 -0.015 0
0.0266667 -0.015 0
0.0233333 -0.015 0
0.02 -0.015 0
0.0166667 -0.015 0
0.0133333 -0.015 0
0.01 -0.015 0
0.00666667 -0.015 0
0.00333333 -0.015 0
0 -0.015 0
0.1 -0.0183333 0
0.0966667 -0.0183333 0
0.0933333 -0.0183333 0
0.09 -0.0183333 0
0.0866667 -0.0183333 0
0.0833333 -0.0183333 0
0.08 -0.0183333 0
0.0766667 -0.0183333 0
0.0733333 -0.0183333 0
0.07 -0.0183333 0
0.0666667 -0.0183333 0
0.0633333 -0.0183333 0
0.06 -0.0183333 0
0.0566667 -0.0183333 0
0.0533333 -0.0183333 0
0.05 -0.0183333 0
0.0466667 -0.0183333 0
0.0433333 -0.0183333 0
0.04 -0.0183333 0
0.0366667 -0.0183333 0
0.0333333 -0.0183333 0
0.03 -0.0183333 0
0.0266667 -0.0183333 0
0.0233333 -0.0183333 0
0.02 -0.0183333 0
0.0166667 -0.0183333 0
0.0133333 -0.0183333 0
0.01 -0.0183333 0
0.00666667 -0.0183333 0
0.00333333 -0.0183333 0
0 -0.0183333 0
0.1 -0.0216667 0
0.0966667 -0.0216667 0
0.0933333 -0.0216667 0
0.09 -0.0216667 0
0.0866667 -0.0216667 0
0.0833333 -0.0216667 0
0.08 -0.0216667 0
0.0766667 -0.0216667 0
0.0733333 -0.0216667 0
0.07 -0.0216667 0
0.0666667 -0.0216667 0
0.0633333 -0.0216667 0
0.06 -0.0216667 0
0.0566667 -0.0216667 0
0.0533333 -0.0216667 0
0.05 -0.0216667 0
0.0466667 -0.0216667 0
0.0433333 -0.0216667 0
0.04 -0.0216667 0
0.0366667 -0.0216667 0
0.0333333 -0.0216667 0
0.03 -0.0216667 0
0.0266667 -0.0216667 0
0.0233333 -0.0216667 0
0.02 -0.0216667 0
0.0166667 -0.0216667 0
0.0133333 -0.0216667 0
0.01 -0.0216667 0
0.00666667 -0.0216667 0
0.00333333 -0.0216667 0
0 -0.0216667 0
0.1 -0.025 0
0.0966667 -0.025 0
0.0933333 -0.025 0
0.09 -0.025 0
0.0866667 -0.025 0
0.0833333 -0.025 0
0.08 -0.025 0
0.0766667 -0.025 0
0.0733333 -0.025 0
0.07 -0.025 0
0.0666667 -0.025 0
0.0633333 -0.025 0
0.06 -0.025 0
0.0566667 -0.025 0
0.0533333 -0.025 0
0.05 -0.025 0
0.0466667 -0.025 0
0.0433333 -0.025 0
0.04 -0.025 0
0.0366667 -0.025 0
0.0333333 -0.025 0
0.03 -0.025 0
0.0266667 -0.025 0
0.0233333 -0.025 0
0.02 -0.025 0
0.0166667 -0.025 0
0.0133333 -0.025 0
0.01 -0.025 0
0.00666667 -0.025 0
0.00333333 -0.025 0
0 -0.025 0
0.1 -0.0283333 0
0.0966667 -0.0283333 0
0.0933333 -0.0283333 0
0.09 -0.0283333 0
0.0866667 -0.0283333 0
0.0833333 -0.0283333 0
0.08 -0.0283333 0
0.0766667 -0.0283333 0
0.0733333 -0.0283333 0
0.07 -0.0283333 0
0.0666667 -0.0283333 0
0.0633333 -0.0283333 0
0.06 -0.0283333 0
0.0566667 -0.0283333 0
0.0533333 -0.0283333 0
0.05 -0.0283333 0
0.0466667 -0.0283333 0
0.0433333 -0.0283333 0
0.04 -0.0283333 0
0.0366667 -0.0283333 0
0.0333333 -0.0283333 0
0.03 -0.0283333 0
0.0266667 -0.0283333 0
0.0233333 -0.0283333 0
0.02 -0.0283333 0
0.0166667 -0.0283333 0
0.0133333 -0.0283333 0
0.01 -0.0283333 0
0.00666667 -0.0283333 0
0.00333333 -0.0283333 0
0 -0.0283333 0
0.1 -0.0316667 0
0.0966667 -0.0316667 0
0.0933333 -0.0316667 0
0.09 -0.0316667 0
0.0866667 -0.0316667 0
0.0833333 -0.0316667 0
0.08 -0.0316667 0
0.0766667 -0.0316667 0
0.0733333 -0.0316667 0
0.07 -0.0316667 0
0.0666667 -0.0316667 0
0.0633333 -0.0316667 0
0.06 -0.0316667 0
0.0566667 -0.0316667 0
0.0533333 -0.0316667 0
0.05 -0.0316667 0
0.0466667 -0.0316667 0
0.0433333 -0.0316667 0
0.04 -0.0316667 0
0.0366667 -0.0316667 0
0.0333333 -0.0316667 0
0.03 -0.0316667 0
0.0266667 -0.0316667 0
0.0233333 -0.0316667 0
0.02 -0.0316667 0
0.0166667 -0.0316667 0
0.0133333 -0.0316667 0
0.01 -0.0316667 0
0.00666667 -0.0316667 0
0.00333333 -0.0316667 0
0 -0.0316667 0
0.1 -0.035 0
0.0966667 -0.035 0
0.0933333 -0.035 0
0.09 -0.035 0
0.0866667 -0.035 0
0.0833333 -0.035 0
0.08 -0.035 0
0.0766667 -0.035 0
0.0733333 -0.035 0
0.07 -0.035 0
0.0666667 -0.035 0
0.0633333 -0.035 0
0.06 -0.035 0
0.0566667 -0.035 0
0.0533333 -0.035 0
0.05 -0.035 0
0.0466667 -0.035 0
0.0433333 -0.035 0
0.04 -0.035 0
0.0366667 -0.035 0
0.0333333 -0.035 0
0.03 -0.035 0
0.0266667 -0.035 0
0.0233333 -0.035 0
0.02 -0.035 0
0.0166667 -0.035 0
0.0133333 -0.035 0
0.01 -0.035 0
0.00666667 -0.035 0
0.00333333 -0.035 0
0 -0.035 0
0.1 -0.0383333 0
0.0966667 -0.0383333 0
0.0933333 -0.0383333 0
0.09 -0.0383333 0
0.0866667 -0.0383333 0
0.0833333 -0.0383333 0
0.08 -0.0383333 0
0.0766667 -0.0383333 0
0.0733333 -0.0383333 0
0.07 -0.0383333 0
0.0666667 -0.0383333 0
0.0633333 -0.0383333 0
0.06 -0.0383333 0
0.0566667 -0.0383333 0
0.0533333 -0.0383333 0
0.05 -0.0383333 0
0.0466667 -0.0383333 0
0.0433333 -0.0383333 0
0.04 -0.0383333 0
0.0366667 -0.0383333 0
0.0333333 -0.0383333 0
0.03 -0.0383333 0
0.0266667 -0.0383333 0
0.0233333 -0.0383333 0
0.02 -0.0383333 0
0.0166667 -0.0383333 0
0.0133333 -0.0383333 0
0.01 -0.0383333 0
0.00666667 -0.0383333 0
0.00333333 -0.0383333 0
0 -0.0383333 0
0.1 -0.0416667 0
0.0966667 -0.0416667 0
0.0933333 -0.0416667 0
0.09 -0.0416667 0
0.0866667 -0.0416667 0
0.0833333 -0.0416667 0
0.08 -0.0416667 0
0.0766667 -0.0416667 0
0.0733333 -0.0416667 0
0.07 -0.0416667 0
0.0666667 -0.0416667 0
0.0633333 -0.0416667 0
0.06 -0.0416667 0
0.0566667 -0.0416667 0
0.0533333 -0.0416667 0
0.05 -0.0416667 0
0.0466667 -0.0416667 0
0.0433333 -0.0416667 0
0.04 -0.0416667 0
0.0366667 -0.0416667 0
0.0333333 -0.0416667 0
0.03 -0.0416667 0
0.0266667 -0.0416667 0
0.0233333 -0.0416667 0
0.02 -0.0416667 0
0.0166667 -0.0416667 0
0.0133333 -0.0416667 0
0.01 -0.0416667 0
0.00666667 -0.0416667 0
0.00333333 -0.0416667 0
0 -0.0416667 0
0.1 -0.045 0
0.0966667 -0.045 0
0.0933333 -0.045 0
0.09 -0.045 0
0.0866667 -0.045 0
0.0833333 -0.045 0
0.08 -0.045 0
0.0766667 -0.045 0
0.0733333 -0.045 0
0.07 -0.045 0
0.0666667 -0.045 0
0.0633333 -0.045 0
0.06 -0.045 0
0.0566667 -0.045 0
0.0533333 -0.045 0
0.05 -0.045 0
0.0466667 -0.045 0
0.0433333 -0.045 0
0.04 -0.045 0
0.0366667 -0.045 0
0.0333333 -0.045 0
0.03 -0.045 0
0.0266667 -0.045 0
0.0233333 -0.045 0
0.02 -0.045 0
0.0166667 -0.045 0
0.0133333 -0.045 0
0.01 -0.045 0
0.00666667 -0.045 0
0.00333333 -0.045 0
0 -0.045 0
0.1 -0.0483333 0
0.0966667 -0.0483333 0
0.0933333 -0.0483333 0
0.09 -0.0483333 0
0.0866667 -0.0483333 0
[...]
POINT_DATA 961
SCALARS Temp float 1
LOOKUP_TABLE default
715.541827
696.722872
679.050093
662.561316
647.290154
633.266142
620.514650
609.057352
598.912264
590.094269
582.615284
576.484683
571.709650
568.295408
566.245497
565.561970
566.245497
568.295409
571.709656
576.484692
582.615279
590.094278
598.912280
609.057358
620.514671
633.266143
647.290173
662.561321
679.050116
696.722925
715.541868
696.722901
677.172910
658.813616
641.684325
625.819947
611.251165
598.004335
586.101971
575.562791
566.402255
558.632744
552.263995
547.303472
543.756602
541.627060
540.916981
541.627061
543.756603
547.303479
552.264004
558.632739
566.402264
575.562807
586.101977
598.004356
611.251166
625.819966
641.684329
658.813639
677.172956
696.722927
679.050098
658.813598
639.809604
622.078803
605.657334
590.576956
576.864950
564.544621
553.635344
544.153123
536.110774
529.518377
524.383657
520.712232
518.507908
517.772893
518.507909
520.712234
524.383664
529.518386
536.110769
544.153132
553.635360
564.544627
576.864971
590.576957
605.657353
622.078806
639.809624
658.813639
679.050118
662.561305
641.684290
622.078787
603.786774
586.845533
571.287829
557.141806
544.431508
533.176923
523.394564
515.097650
508.296583
502.999333
499.211696
496.937597
496.179317
496.937598
499.211697
502.999340
508.296593
515.097645
523.394573
533.176940
544.431513
557.141827
571.287829
586.845552
603.786775
622.078805
641.684328
662.561321
647.290160
625.819929
605.657337
586.845553
569.422920
553.423133
538.875139
525.803664
514.229267
504.168926
495.636242
488.641910
483.194128
479.298857
476.960135
476.180306
476.960135
479.298858
483.194135
488.641920
495.636236
504.168935
514.229283
525.803670
538.875161
553.423133
569.422937
586.845552
605.657352
625.819965
647.290173
633.266136
611.251134
590.576946
571.287836
553.423120
537.017350
522.100207
508.697045
496.828945
486.513320
477.764114
470.592296
465.006271
461.012153
458.614083
457.814465
458.614084
461.012154
465.006278
470.592305
477.764108
486.513330
496.828962
508.697050
522.100228
537.017348
553.423137
571.287833
590.576960
611.251169
633.266148
620.514662
598.004322
576.864958
557.141832
538.875146
522.100227
506.847426
493.142670
481.007515
470.459764
461.513678
454.180474
448.468747
444.384749
441.932715
441.115103
441.932716
444.384751
448.468754
454.180484
461.513672
470.459773
481.007531
493.142675
506.847448
522.100224
538.875161
557.141828
576.864971
598.004356
620.514672
609.057354
586.101947
564.544618
544.431523
525.803659
508.697053
493.142658
479.166912
466.791799
456.035478
446.912489
439.434275
433.609600
429.444842
426.944319
426.110539
426.944320
429.444843
433.609607
439.434284
446.912483
456.035486
466.791816
479.166916
493.142679
508.697050
525.803674
544.431518
564.544630
586.101980
609.057362
598.912276
575.562777
553.635352
533.176950
514.229273
496.828966
481.007514
466.791812
454.204220
443.263212
433.983578
426.376958
420.452270
416.215999
413.672539
412.824442
413.672540
416.216000
420.452277
426.376968
433.983572
443.263221
454.204237
466.791816
481.007535
496.828962
514.229287
533.176944
553.635363
575.562810
598.912284
590.094270
566.402229
544.153120
523.394579
504.168920
486.513329
470.459751
456.035477
443.263198
432.161658
422.745867
415.027636
409.016013
404.717582
402.136801
401.276260
402.136802
404.717583
409.016020
415.027646
422.745860
432.161667
443.263215
456.035481
470.459772
486.513324
504.168935
523.394572
544.153130
566.402262
590.094278
582.615277
558.632709
536.110762
515.097657
495.636226
477.764113
461.513655
446.912479
433.983555
422.745858
413.214582
405.401685
399.316328
394.965175
392.352739
391.481643
392.352740
394.965176
399.316335
405.401695
413.214575
422.745866
433.983572
446.912483
461.513676
477.764108
495.636241
515.097650
536.110772
558.632742
582.615284
576.484687
552.263971
529.518376
508.296602
488.641907
470.592307
454.180464
439.434278
426.376948
415.027639
405.401699
397.511202
391.365403
386.971032
384.332648
383.452899
384.332648
386.971033
391.365410
397.511212
405.401692
415.027648
426.376965
439.434281
454.180485
470.592302
488.641921
508.296594
529.518386
552.264005
576.484694
571.709652
547.303447
524.383655
502.999351
483.194123
465.006281
448.468735
433.609602
420.452258
409.016015
399.316340
391.365402
385.172524
380.744490
378.085895
377.199407
378.085896
380.744491
385.172531
391.365412
399.316333
409.016024
420.452275
433.609606
448.468757
465.006276
483.194138
502.999343
524.383666
547.303480
571.709659
568.295407
543.756572
520.712226
499.211709
479.298848
461.012159
444.384733
429.444839
416.215982
404.717579
394.965182
386.971025
380.744485
376.292382
373.619335
372.728028
373.619336
376.292383
380.744493
386.971036
394.965175
404.717589
416.215999
429.444843
444.384754
461.012154
479.298862
499.211702
520.712237
543.756606
568.295414
566.245496
541.627031
518.507902
496.937611
476.960126
458.614090
441.932699
426.944316
413.672523
402.136799
392.352747
384.332642
378.085891
373.619336
370.937613
370.043413
370.937613
373.619337
378.085899
384.332653
392.352740
402.136809
413.672541
426.944321
441.932721
458.614085
476.960141
496.937604
518.507913
541.627065
566.245503
565.561969
540.916952
517.772888
496.179331
476.180298
457.814472
441.115088
426.110537
412.824427
401.276259
391.481652
383.452894
377.199404
372.728030
370.043414
369.148249
370.043414
372.728031
377.199412
383.452905
391.481645
401.276268
412.824445
426.110542
441.115110
457.814468
476.180314
496.179325
517.772899
540.916987
565.561977
566.245496
541.627031
518.507902
496.937611
476.960126
458.614089
441.932699
426.944317
413.672523
402.136800
392.352748
384.332643
378.085891
373.619336
370.937613
370.043413
370.937614
373.619338
378.085899
384.332654
392.352741
402.136810
413.672542
426.944322
441.932722
458.614086
476.960142
496.937605
518.507914
541.627066
566.245504
568.295406
543.756572
520.712226
499.211709
479.298847
461.012159
444.384733
429.444839
416.215982
404.717580
394.965182
386.971026
380.744486
376.292382
373.619336
372.728029
373.619337
376.292384
380.744494
386.971037
394.965177
404.717590
416.216001
429.444845
444.384756
461.012156
479.298864
499.211704
520.712239
543.756608
568.295416
571.709652
547.303446
524.383655
502.999350
483.194123
465.006281
448.468735
433.609602
420.452258
409.016016
399.316341
391.365402
385.172525
380.744491
378.085897
377.199409
378.085897
380.744493
385.172533
391.365414
399.316336
409.016027
420.452278
433.609608
448.468760
465.006279
483.194141
502.999347
524.383669
547.303484
571.709662
576.484686
552.263971
529.518375
508.296601
488.641906
470.592307
454.180464
439.434278
426.376949
415.027640
405.401700
397.511203
391.365404
386.971033
384.332650
383.452901
384.332651
386.971035
391.365413
397.511215
405.401695
415.027652
426.376969
439.434285
454.180489
470.592306
488.641926
508.296599
529.518391
552.264009
576.484698
582.615280
558.632712
536.110765
515.097660
495.636230
477.764117
461.513660
446.912484
433.983561
422.745863
413.214588
405.401692
399.316335
394.965182
392.352747
391.481650
392.352748
394.965184
399.316344
405.401704
413.214584
422.745876
433.983582
446.912493
461.513686
477.764118
495.636251
515.097660
536.110782
558.632752
582.615294
590.094264
566.402223
544.153113
523.394573
504.168914
486.513323
470.459745
456.035472
443.263193
432.161653
422.745863
415.027632
409.016009
404.717579
402.136798
401.276257
402.136800
404.717581
409.016019
415.027644
422.745859
432.161667
443.263215
456.035481
470.459773
486.513325
504.168936
523.394574
544.153132
566.402265
590.094280
598.912279
575.562780
553.635356
533.176955
514.229277
496.828971
481.007520
466.791818
454.204227
443.263219
433.983587
426.376967
420.452279
416.216008
413.672549
412.824453
413.672551
416.216011
420.452289
426.376980
433.983584
443.263233
454.204250
466.791829
481.007549
496.828976
514.229301
533.176958
553.635377
575.562824
598.912297
609.057345
586.101938
564.544609
544.431514
525.803650
508.697045
493.142650
479.166905
466.791792
456.035471
446.912483
439.434269
433.609595
429.444837
426.944315
426.110535
426.944316
429.444840
433.609605
439.434283
446.912482
456.035486
466.791816
479.166917
493.142680
508.697052
525.803677
544.431521
564.544633
586.101984
609.057366
620.514669
598.004329
576.864966
557.141841
538.875155
522.100238
506.847438
493.142683
481.007528
470.459779
461.513693
454.180490
448.468764
444.384767
441.932733
441.115122
441.932735
444.384770
448.468774
454.180504
461.513693
470.459794
481.007553
493.142697
506.847470
522.100247
538.875184
557.141851
576.864994
598.004378
620.514694
633.266132
611.251130
590.576942
571.287832
553.423117
537.017348
522.100206
508.697045
496.828946
486.513322
477.764116
470.592298
465.006274
461.012157
458.614087
457.814470
458.614089
461.012160
465.006284
470.592312
477.764116
486.513338
496.828971
508.697060
522.100239
537.017359
553.423149
571.287846
590.576973
611.251183
633.266161
647.290142
625.819911
605.657319
586.845535
569.422903
553.423117
538.875124
525.803649
514.229252
504.168913
495.636229
488.641898
483.194116
479.298845
476.960124
476.180296
476.960126
479.298849
483.194126
488.641912
495.636229
504.168929
514.229278
525.803666
538.875158
553.423131
569.422937
586.845553
605.657355
625.819969
647.290177
662.561302
641.684287
622.078785
603.786774
586.845535
571.287832
557.141810
544.431513
533.176930
523.394571
515.097658
508.296592
502.999343
499.211707
496.937609
496.179329
496.937610
499.211710
502.999354
508.296607
515.097660
523.394588
533.176956
544.431531
557.141846
571.287848
586.845572
603.786797
622.078828
641.684352
662.561344
679.050076
658.813576
639.809583
622.078785
605.657318
590.576941
576.864936
564.544607
553.635332
544.153112
536.110763
529.518366
524.383647
520.712223
518.507900
517.772885
518.507901
520.712227
524.383658
529.518381
536.110764
544.153129
553.635358
564.544626
576.864972
590.576959
605.657357
622.078812
639.809633
658.813651
679.050130
696.722897
677.172908
658.813618
641.684331
625.819956
611.251176
598.004348
586.101986
575.562808
566.402273
558.632762
552.264015
547.303492
543.756623
541.627082
540.917003
541.627084
543.756626
547.303503
552.264029
558.632764
566.402290
575.562834
586.102005
598.004385
611.251196
625.819997
641.684362
658.813675
677.172996
696.722974
715.541793
696.722846
679.050077
662.561303
647.290144
633.266134
620.514644
609.057347
598.912260
590.094265
582.615281
576.484681
571.709648
568.295407
566.245496
565.561970
566.245498
568.295411
571.709658
576.484694
582.615283
590.094282
598.912285
609.057364
620.514679
633.266153
647.290184
662.561335
679.050134
696.722950
715.541906
