# vtk DataFile Version 2.0
Unstructured Grid Example
ASCII
DATASET UNSTRUCTURED_GRID

POINTS 961 float
0.1 0.005 0
0.0966667 0.005 0
0.0933333 0.005 0
0.09 0.005 0
0.0866667 0.005 0
0.0833333 0.005 0
0.08 0.005 0
0.0766667 0.005 0
0.0733333 0.005 0
0.07 0.005 0
0.0666667 0.005 0
0.0633333 0.005 0
0.06 0.005 0
0.0566667 0.005 0
0.0533333 0.005 0
0.05 0.005 0
0.0466667 0.005 0
0.0433333 0.005 0
0.04 0.005 0
0.0366667 0.005 0
0.0333333 0.005 0
0.03 0.005 0
0.0266667 0.005 0
0.0233333 0.005 0
0.02 0.005 0
0.0166667 0.005 0
0.0133333 0.005 0
0.01 0.005 0
0.00666667 0.005 0
0.00333333 0.005 0
0 0.005 0
0.1 0.00166667 0
0.0966667 0.00166667 0
0.0933333 0.00166667 0
0.09 0.00166667 0
0.0866667 0.00166667 0
0.0833333 0.00166667 0
0.08 0.00166667 0
0.0766667 0.00166667 0
0.0733333 0.00166667 0
0.07 0.00166667 0
0.0666667 0.00166667 0
0.0633333 0.00166667 0
0.06 0.00166667 0
0.0566667 0.00166667 0
0.0533333 0.00166667 0
0.05 0.00166667 0
0.0466667 0.00166667 0
0.0433333 0.00166667 0
0.04 0.00166667 0
0.0366667 0.00166667 0
0.0333333 0.00166667 0
0.03 0.00166667 0
0.0266667 0.00166667 0
0.0233333 0.00166667 0
0.02 0.00166667 0
0.0166667 0.00166667 0
0.0133333 0.00166667 0
0.01 0.00166667 0
0.00666667 0.00166667 0
0.00333333 0.00166667 0
0 0.00166667 0
0.1 -0.00166667 0
0.0966667 -0.00166667 0
0.0933333 -0.00166667 0
0.09 -0.00166667 0
0.0866667 -0.00166667 0
0.0833333 -0.00166667 0
0.08 -0.00166667 0
0.0766667 -0.00166667 0
0.0733333 -0.00166667 0
0.07 -0.00166667 0
0.0666667 -0.00166667 0
0.0633333 -0.00166667 0
0.06 -0.00166667 0
0.0566667 -0.00166667 0
0.0533333 -0.00166667 0
0.05 -0.00166667 0
0.0466667 -0.00166667 0
0.0433333 -0.00166667 0
0.04 -0.00166667 0
0.0366667 -0.00166667 0
0.0333333 -0.00166667 0
0.03 -0.00166667 0
0.0266667 -0.00166667 0
0.0233333 -0.00166667 0
0.02 -0.00166667 0
0.0166667 -0.00166667 0
0.0133333 -0.00166667 0
0.01 -0.00166667 0
0.00666667 -0.00166667 0
0.00333333 -0.00166667 0
0 -0.00166667 0
0.1 -0.005 0
0.0966667 -0.005 0
0.0933333 -0.005 0
0.09 -0.005 0
0.0866667 -0.005 0
0.0833333 -0.005 0
0.08 -0.005 0
0.0766667 -0.005 0
0.0733333 -0.005 0
0.07 -0.005 0
0.0666667 -0.005 0
0.0633333 -0.005 0
0.06 -0.005 0
0.0566667 -0.005 0
0.0533333 -0.005 0
0.05 -0.005 0
0.0466667 -0.005 0
0.0433333 -0.005 0
0.04 -0.005 0
0.0366667 -0.005 0
0.0333333 -0.005 0
0.03 -0.005 0
0.0266667 -0.005 0
0.0233333 -0.005 0
0.02 -0.005 0
0.0166667 -0.005 0
0.0133333 -0.005 0
0.01 -0.005 0
0.00666667 -0.005 0
0.00333333 -0.005 0
0 -0.005 0
0.1 -0.00833333 0
0.0966667 -0.00833333 0
0.0933333 -0.00833333 0
0.09 -0.00833333 0
0.0866667 -0.00833333 0
0.0833333 -0.00833333 0
0.08 -0.00833333 0
0.0766667 -0.00833333 0
0.0733333 -0.00833333 0
0.07 -0.00833333 0
0.0666667 -0.00833333 0
0.0633333 -0.00833333 0
0.06 -0.00833333 0
0.0566667 -0.00833333 0
0.0533333 -0.00833333 0
0.05 -0.00833333 0
0.0466667 -0.00833333 0
0.0433333 -0.00833333 0
0.04 -0.00833333 0
0.0366667 -0.00833333 0
0.0333333 -0.00833333 0
0.03 -0.00833333 0
0.0266667 -0.00833333 0
0.0233333 -0.00833333 0
0.02 -0.00833333 0
0.0166667 -0.00833333 0
0.0133333 -0.00833333 0
0.01 -0.00833333 0
0.00666667 -0.00833333 0
0.00333333 -0.00833333 0
0 -0.00833333 0
0.1 -0.0116667 0
0.0966667 -0.0116667 0
0.0933333 -0.0116667 0
0.09 -0.0116667 0
0.0866667 -0.0116667 0
0.0833333 -0.0116667 0
0.08 -0.0116667 0
0.0766667 -0.0116667 0
0.0733333 -0.0116667 0
0.07 -0.0116667 0
0.0666667 -0.0116667 0
0.0633333 -0.0116667 0
0.06 -0.0116667 0
0.0566667 -0.0116667 0
0.0533333 -0.0116667 0
0.05 -0.0116667 0
0.0466667 -0.0116667 0
0.0433333 -0.0116667 0
0.04 -0.0116667 0
0.0366667 -0.0116667 0
0.0333333 -0.0116667 0
0.03 -0.0116667 0
0.0266667 -0.0116667 0
0.0233333 -0.0116667 0
0.02 -0.0116667 0
0.0166667 -0.0116667 0
0.0133333 -0.0116667 0
0.01 -0.0116667 0
0.00666667 -0.0116667 0
0.00333333 -0.0116667 0
0 -0.0116667 0
0.1 -0.015 0
0.0966667 -0.015 0
0.0933333 -0.015 0
0.09 -0.015 0
0.0866667 -0.015 0
0.0833333 -0.015 0
0.08 -0.015 0
0.0766667 -0.015 0
0.0733333 -0.015 0
0.07 -0.015 0
0.0666667 -0.015 0
0.0633333 -0.015 0
0.06 -0.015 0
0.0566667 -0.015 0
0.0533333 -0.015 0
0.05 -0.015 0
0.0466667 -0.015 0
0.0433333 -0.015 0
0.04 -0.015 0
0.0366667 -0.015 0
0.0333333 -0.015 0
0.03 -0.015 0
0.0266667 -0.015 0
0.0233333 -0.015 0
0.02 -0.015 0
0.0166667 -0.015 0
0.0133333 -0.015 0
0.01 -0.015 0
0.00666667 -0.015 0
0.00333333 -0.015 0
0 -0.015 0
0.1 -0.0183333 0
0.0966667 -0.0183333 0
0.0933333 -0.0183333 0
0.09 -0.0183333 0
0.0866667 -0.0183333 0
0.0833333 -0.0183333 0
0.08 -0.0183333 0
0.0766667 -0.0183333 0
0.0733333 -0.0183333 0
0.07 -0.0183333 0
0.0666667 -0.0183333 0
0.0633333 -0.0183333 0
0.06 -0.0183333 0
0.0566667 -0.0183333 0
0.0533333 -0.0183333 0
0.05 -0.0183333 0
0.0466667 -0.0183333 0
0.0433333 -0.0183333 0
0.04 -0.0183333 0
0.0366667 -0.0183333 0
0.0333333 -0.0183333 0
0.03 -0.0183333 0
0.0266667 -0.0183333 0
0.0233333 -0.0183333 0
0.02 -0.0183333 0
0.0166667 -0.0183333 0
0.0133333 -0.0183333 0
0.01 -0.0183333 0
0.00666667 -0.0183333 0
0.00333333 -0.0183333 0
0 -0.0183333 0
0.1 -0.0216667 0
0.0966667 -0.0216667 0
0.0933333 -0.0216667 0
0.09 -0.0216667 0
0.0866667 -0.0216667 0
0.0833333 -0.0216667 0
0.08 -0.0216667 0
0.0766667 -0.0216667 0
0.0733333 -0.0216667 0
0.07 -0.0216667 0
0.0666667 -0.0216667 0
0.0633333 -0.0216667 0
0.06 -0.0216667 0
0.0566667 -0.0216667 0
0.0533333 -0.0216667 0
0.05 -0.0216667 0
0.0466667 -0.0216667 0
0.0433333 -0.0216667 0
0.04 -0.0216667 0
0.0366667 -0.0216667 0
0.0333333 -0.0216667 0
0.03 -0.0216667 0
0.0266667 -0.0216667 0
0.0233333 -0.0216667 0
0.02 -0.0216667 0
0.0166667 -0.0216667 0
0.0133333 -0.0216667 0
0.01 -0.0216667 0
0.00666667 -0.0216667 0
0.00333333 -0.0216667 0
0 -0.0216667 0
0.1 -0.025 0
0.0966667 -0.025 0
0.0933333 -0.025 0
0.09 -0.025 0
0.0866667 -0.025 0
0.0833333 -0.025 0
0.08 -0.025 0
0.0766667 -0.025 0
0.0733333 -0.025 0
0.07 -0.025 0
0.0666667 -0.025 0
0.0633333 -0.025 0
0.06 -0.025 0
0.0566667 -0.025 0
0.0533333 -0.025 0
0.05 -0.025 0
0.0466667 -0.025 0
0.0433333 -0.025 0
0.04 -0.025 0
0.0366667 -0.025 0
0.0333333 -0.025 0
0.03 -0.025 0
0.0266667 -0.025 0
0.0233333 -0.025 0
0.02 -0.025 0
0.0166667 -0.025 0
0.0133333 -0.025 0
0.01 -0.025 0
0.00666667 -0.025 0
0.00333333 -0.025 0
0 -0.025 0
0.1 -0.0283333 0
0.0966667 -0.0283333 0
0.0933333 -0.0283333 0
0.09 -0.0283333 0
0.0866667 -0.0283333 0
0.0833333 -0.0283333 0
0.08 -0.0283333 0
0.0766667 -0.0283333 0
0.0733333 -0.0283333 0
0.07 -0.0283333 0
0.0666667 -0.0283333 0
0.0633333 -0.0283333 0
0.06 -0.0283333 0
0.0566667 -0.0283333 0
0.0533333 -0.0283333 0
0.05 -0.0283333 0
0.0466667 -0.0283333 0
0.0433333 -0.0283333 0
0.04 -0.0283333 0
0.0366667 -0.0283333 0
0.0333333 -0.0283333 0
0.03 -0.0283333 0
0.0266667 -0.0283333 0
0.0233333 -0.0283333 0
0.02 -0.0283333 0
0.0166667 -0.0283333 0
0.0133333 -0.0283333 0
0.01 -0.0283333 0
0.00666667 -0.0283333 0
0.00333333 -0.0283333 0
0 -0.0283333 0
0.1 -0.0316667 0
0.0966667 -0.0316667 0
0.0933333 -0.0316667 0
0.09 -0.0316667 0
0.0866667 -0.0316667 0
0.0833333 -0.0316667 0
0.08 -0.0316667 0
0.0766667 -0.0316667 0
0.0733333 -0.0316667 0
0.07 -0.0316667 0
0.0666667 -0.0316667 0
0.0633333 -0.0316667 0
0.06 -0.0316667 0
0.0566667 -0.0316667 0
0.0533333 -0.0316667 0
0.05 -0.0316667 0
0.0466667 -0.0316667 0
0.0433333 -0.0316667 0
0.04 -0.0316667 0
0.0366667 -0.0316667 0
0.0333333 -0.0316667 0
0.03 -0.0316667 0
0.0266667 -0.0316667 0
0.0233333 -0.0316667 0
0.02 -0.0316667 0
0.0166667 -0.0316667 0
0.0133333 -0.0316667 0
0.01 -0.0316667 0
0.00666667 -0.0316667 0
0.00333333 -0.0316667 0
0 -0.0316667 0
0.1 -0.035 0
0.0966667 -0.035 0
0.0933333 -0.035 0
0.09 -0.035 0
0.0866667 -0.035 0
0.0833333 -0.035 0
0.08 -0.035 0
0.0766667 -0.035 0
0.0733333 -0.035 0
0.07 -0.035 0
0.0666667 -0.035 0
0.0633333 -0.035 0
0.06 -0.035 0
0.0566667 -0.035 0
0.0533333 -0.035 0
0.05 -0.035 0
0.0466667 -0.035 0
0.0433333 -0.035 0
0.04 -0.035 0
0.0366667 -0.035 0
0.0333333 -0.035 0
0.03 -0.035 0
0.0266667 -0.035 0
0.0233333 -0.035 0
0.02 -0.035 0
0.0166667 -0.035 0
0.0133333 -0.035 0
0.01 -0.035 0
0.00666667 -0.035 0
0.00333333 -0.035 0
0 -0.035 0
0.1 -0.0383333 0
0.0966667 -0.0383333 0
0.0933333 -0.0383333 0
0.09 -0.0383333 0
0.0866667 -0.0383333 0
0.0833333 -0.0383333 0
0.08 -0.0383333 0
0.0766667 -0.0383333 0
0.0733333 -0.0383333 0
0.07 -0.0383333 0
0.0666667 -0.0383333 0
0.0633333 -0.0383333 0
0.06 -0.0383333 0
0.0566667 -0.0383333 0
0.0533333 -0.0383333 0
0.05 -0.0383333 0
0.0466667 -0.0383333 0
0.0433333 -0.0383333 0
0.04 -0.0383333 0
0.0366667 -0.0383333 0
0.0333333 -0.0383333 0
0.03 -0.0383333 0
0.0266667 -0.0383333 0
0.0233333 -0.0383333 0
0.02 -0.0383333 0
0.0166667 -0.0383333 0
0.0133333 -0.0383333 0
0.01 -0.0383333 0
0.00666667 -0.0383333 0
0.00333333 -0.0383333 0
0 -0.0383333 0
0.1 -0.0416667 0
0.0966667 -0.0416667 0
0.0933333 -0.0416667 0
0.09 -0.0416667 0
0.0866667 -0.0416667 0
0.0833333 -0.0416667 0
0.08 -0.0416667 0
0.0766667 -0.0416667 0
0.0733333 -0.0416667 0
0.07 -0.0416667 0
0.0666667 -0.0416667 0
0.0633333 -0.0416667 0
0.06 -0.0416667 0
0.0566667 -0.0416667 0
0.0533333 -0.0416667 0
0.05 -0.0416667 0
0.0466667 -0.0416667 0
0.0433333 -0.0416667 0
0.04 -0.0416667 0
0.0366667 -0.0416667 0
0.0333333 -0.0416667 0
0.03 -0.0416667 0
0.0266667 -0.0416667 0
0.0233333 -0.0416667 0
0.02 -0.0416667 0
0.0166667 -0.0416667 0
0.0133333 -0.0416667 0
0.01 -0.0416667 0
0.00666667 -0.0416667 0
0.00333333 -0.0416667 0
0 -0.0416667 0
0.1 -0.045 0
0.0966667 -0.045 0
0.0933333 -0.045 0
0.09 -0.045 0
0.0866667 -0.045 0
0.0833333 -0.045 0
0.08 -0.045 0
0.0766667 -0.045 0
0.0733333 -0.045 0
0.07 -0.045 0
0.0666667 -0.045 0
0.0633333 -0.045 0
0.06 -0.045 0
0.0566667 -0.045 0
0.0533333 -0.045 0
0.05 -0.045 0
0.0466667 -0.045 0
0.0433333 -0.045 0
0.04 -0.045 0
0.0366667 -0.045 0
0.0333333 -0.045 0
0.03 -0.045 0
0.0266667 -0.045 0
0.0233333 -0.045 0
0.02 -0.045 0
0.0166667 -0.045 0
0.0133333 -0.045 0
0.01 -0.045 0
0.00666667 -0.045 0
0.00333333 -0.045 0
0 -0.045 0
0.1 -0.0483333 0
0.0966667 -0.0483333 0
0.0933333 -0.0483333 0
0.09 -0.0483333 0
0.0866667 -0.0483333 0
[...]
POINT_DATA 961
SCALARS Temp float 1
LOOKUP_TABLE default
992.118657
984.036067
976.430564
969.318924
962.716847
956.638945
951.098617
946.108127
941.678475
937.819465
934.539611
931.846152
929.745048
928.240937
927.337138
927.035650
927.337139
928.240938
929.745051
931.846157
934.539610
937.819469
941.678482
946.108131
951.098627
956.638947
962.716856
969.318928
976.430575
984.036091
992.118676
984.036080
975.639229
967.738014
960.349868
953.491097
947.176882
941.421142
936.236617
931.634737
927.625686
924.218308
921.420126
919.237329
917.674737
916.735798
916.422588
916.735799
917.674738
919.237333
921.420131
924.218307
927.625690
931.634745
936.236621
941.421152
947.176883
953.491107
960.349872
967.738025
975.639250
984.036092
976.430566
967.738006
959.558536
951.910204
944.809889
938.273308
932.314871
926.947765
922.183822
918.033585
914.506212
911.609487
909.349820
907.732198
906.760193
906.435953
906.760194
907.732199
909.349823
911.609492
914.506211
918.033590
922.183830
926.947769
932.314882
938.273310
944.809899
951.910206
959.558546
967.738025
976.430575
969.318920
960.349853
951.910197
944.018574
936.692402
929.947895
923.799922
918.262090
913.346608
909.064354
905.424777
902.435908
900.104362
898.435285
897.432360
897.097806
897.432361
898.435286
900.104365
902.435913
905.424775
909.064359
913.346616
918.262094
923.799932
929.947896
936.692411
944.018576
951.910206
960.349871
969.318928
962.716849
953.491089
944.809890
936.692410
929.156563
922.219029
915.895101
910.198777
905.142614
900.737803
896.994061
893.919651
891.521376
889.804530
888.772902
888.428773
888.772903
889.804531
891.521379
893.919656
896.994059
900.737808
905.142623
910.198781
915.895112
922.219030
929.156572
936.692411
944.809899
953.491106
962.716857
956.638943
947.176868
938.273304
929.947898
922.219023
915.103786
908.617874
902.775641
897.589967
893.072328
889.232691
886.079532
883.619826
881.859004
880.800951
880.448007
880.800952
881.859005
883.619829
886.079537
889.232690
893.072333
897.589975
902.775645
908.617885
915.103787
922.219031
929.947898
938.273312
947.176885
956.638949
951.098622
941.421136
932.314874
923.799933
915.895104
908.617883
901.984313
896.009077
890.705346
886.084859
882.157810
878.932866
876.417163
874.616254
873.534114
873.173135
873.534114
874.616255
876.417166
878.932871
882.157808
886.084864
890.705354
896.009080
901.984324
908.617883
915.895112
923.799933
932.314882
941.421152
951.098628
946.108127
936.236606
926.947764
918.262097
910.198775
902.775645
896.009071
889.914031
884.503960
879.790832
875.785045
872.495441
869.929297
868.092280
866.988443
866.620226
866.988443
868.092281
869.929301
872.495446
875.785043
879.790837
884.503968
889.914034
896.009082
902.775645
910.198783
918.262096
926.947770
936.236623
946.108133
941.678479
931.634730
922.183825
913.346620
905.142617
897.589975
890.705346
884.503965
878.999504
874.204147
870.128471
866.781473
864.170558
862.301490
861.178394
860.803754
861.178395
862.301491
864.170562
866.781478
870.128469
874.204152
878.999513
884.503968
890.705356
897.589975
905.142625
913.346619
922.183832
931.634746
941.678485
937.819465
927.625674
918.033584
909.064361
900.737800
893.072331
886.084853
879.790831
874.204141
869.337146
865.200584
861.803586
859.153667
857.256678
856.116804
855.736567
856.116805
857.256679
859.153671
861.803591
865.200582
869.337151
874.204149
879.790834
886.084864
893.072331
900.737808
909.064360
918.033590
927.625690
937.819470
934.539607
924.218293
914.506206
905.424779
896.994054
889.232691
882.157800
875.785040
870.128460
865.200580
861.012270
857.572776
854.889707
852.968986
851.814853
851.429859
851.814854
852.968987
854.889711
857.572781
861.012268
865.200585
870.128469
875.785043
882.157810
889.232690
896.994062
905.424778
914.506213
924.218309
934.539612
931.846153
921.420115
911.609486
902.435916
893.919649
886.079536
878.932861
872.495441
866.781468
861.803587
857.572782
854.098389
851.388096
849.447888
848.282044
847.893144
848.282045
849.447889
851.388100
854.098394
857.572780
861.803593
866.781477
872.495445
878.932872
886.079536
893.919657
902.435914
911.609493
921.420131
931.846158
929.745049
919.237318
909.349818
900.104369
891.521373
883.619830
876.417157
869.929297
864.170552
859.153668
854.889712
851.388096
848.656567
846.701156
845.526177
845.134230
845.526178
846.701157
848.656571
851.388101
854.889710
859.153673
864.170561
869.929301
876.417168
883.619829
891.521381
900.104367
909.349825
919.237334
929.745053
928.240936
917.674724
907.732195
898.435290
889.804525
881.859006
874.616246
868.092278
862.301483
857.256676
852.968989
849.447885
846.701154
844.734860
843.553342
843.159213
843.553342
844.734861
846.701158
849.447890
852.968987
857.256682
862.301492
868.092281
874.616257
881.859005
889.804534
898.435288
907.732202
917.674740
928.240941
927.337137
916.735785
906.760190
897.432366
888.772898
880.800953
873.534106
866.988441
861.178387
856.116803
851.814856
848.282042
845.526175
843.553342
842.367895
841.972455
842.367895
843.553343
845.526179
848.282047
851.814854
856.116809
861.178396
866.988445
873.534118
880.800953
888.772906
897.432364
906.760197
916.735802
927.337142
927.035649
916.422575
906.435950
897.097811
888.428769
880.448009
873.173127
866.620225
860.803746
855.736566
851.429862
847.893141
845.134228
843.159213
841.972455
841.576578
841.972456
843.159214
845.134232
847.893147
851.429860
855.736571
860.803756
866.620228
873.173139
880.448009
888.428777
897.097811
906.435957
916.422592
927.035655
927.337137
916.735785
906.760190
897.432366
888.772898
880.800953
873.534106
866.988441
861.178387
856.116803
851.814856
848.282042
845.526176
843.553342
842.367895
841.972455
842.367896
843.553343
845.526180
848.282047
851.814855
856.116809
861.178397
866.988445
873.534118
880.800953
888.772907
897.432365
906.760197
916.735802
927.337143
928.240936
917.674724
907.732195
898.435290
889.804525
881.859006
874.616246
868.092278
862.301483
857.256677
852.968989
849.447885
846.701154
844.734860
843.553342
843.159213
843.553343
844.734861
846.701158
849.447891
852.968988
857.256683
862.301492
868.092282
874.616258
881.859006
889.804535
898.435289
907.732203
917.674741
928.240942
929.745048
919.237318
909.349818
900.104368
891.521373
883.619830
876.417157
869.929297
864.170552
859.153668
854.889712
851.388096
848.656567
846.701156
845.526178
845.134230
845.526179
846.701158
848.656572
851.388102
854.889711
859.153674
864.170562
869.929302
876.417170
883.619831
891.521383
900.104369
909.349826
919.237336
929.745055
931.846153
921.420115
911.609486
902.435915
893.919649
886.079536
878.932861
872.495442
866.781468
861.803588
857.572782
854.098390
851.388097
849.447889
848.282045
847.893145
848.282046
849.447890
851.388102
854.098396
857.572781
861.803594
866.781478
872.495446
878.932874
886.079538
893.919659
902.435916
911.609495
921.420134
931.846160
934.539609
924.218295
914.506208
905.424781
896.994055
889.232692
882.157802
875.785042
870.128463
865.200582
861.012273
857.572779
854.889710
852.968990
851.814856
851.429862
851.814857
852.968991
854.889714
857.572785
861.012272
865.200589
870.128473
875.785048
882.157815
889.232695
896.994066
905.424783
914.506217
924.218314
934.539617
937.819462
927.625671
918.033581
909.064358
900.737797
893.072329
886.084851
879.790829
874.204138
869.337144
865.200582
861.803584
859.153665
857.256676
856.116803
855.736566
856.116804
857.256678
859.153670
861.803591
865.200582
869.337151
874.204149
879.790835
886.084864
893.072331
900.737809
909.064361
918.033591
927.625691
937.819471
941.678481
931.634732
922.183827
913.346621
905.142619
897.589978
890.705348
884.503968
878.999507
874.204150
870.128474
866.781477
864.170562
862.301495
861.178399
860.803758
861.178400
862.301496
864.170567
866.781483
870.128474
874.204157
878.999519
884.503974
890.705362
897.589981
905.142631
913.346625
922.183838
931.634753
941.678491
946.108124
936.236603
926.947760
918.262093
910.198771
902.775641
896.009068
889.914028
884.503957
879.790829
875.785042
872.495438
869.929295
868.092278
866.988441
866.620225
866.988442
868.092280
869.929300
872.495445
875.785043
879.790837
884.503968
889.914035
896.009083
902.775646
910.198784
918.262098
926.947772
936.236624
946.108134
951.098625
941.421139
932.314878
923.799937
915.895108
908.617887
901.984318
896.009082
890.705352
886.084865
882.157817
878.932873
876.417170
874.616262
873.534122
873.173143
873.534123
874.616263
876.417175
878.932880
882.157817
886.084873
890.705364
896.009090
901.984333
908.617893
915.895122
923.799943
932.314892
941.421162
951.098638
956.638940
947.176866
938.273302
929.947896
922.219021
915.103785
908.617873
902.775641
897.589967
893.072328
889.232692
886.079533
883.619827
881.859005
880.800953
880.448009
880.800954
881.859007
883.619832
886.079540
889.232693
893.072337
897.589979
902.775649
908.617889
915.103792
922.219037
929.947904
938.273318
947.176891
956.638955
962.716842
953.491081
944.809882
936.692402
929.156555
922.219021
915.895094
910.198771
905.142608
900.737797
896.994055
893.919646
891.521371
889.804525
888.772897
888.428768
888.772898
889.804527
891.521376
893.919653
896.994056
900.737805
905.142621
910.198779
915.895111
922.219029
929.156572
936.692412
944.809900
953.491108
962.716858
969.318918
960.349852
951.910196
944.018574
936.692402
929.947896
923.799923
918.262093
913.346611
909.064358
905.424780
902.435912
900.104366
898.435289
897.432365
897.097811
897.432366
898.435291
900.104371
902.435919
905.424782
909.064366
913.346624
918.262102
923.799940
929.947905
936.692420
944.018586
951.910216
960.349882
969.318938
976.430556
967.737997
959.558527
951.910196
944.809882
938.273302
932.314865
926.947759
922.183816
918.033580
914.506207
911.609483
909.349815
907.732195
906.760190
906.435950
906.760191
907.732197
909.349821
911.609490
914.506209
918.033589
922.183829
926.947769
932.314882
938.273311
944.809901
951.910209
959.558550
967.738031
976.430581
984.036078
975.639228
967.738015
960.349871
953.491101
947.176886
941.421147
936.236624
931.634744
927.625693
924.218316
921.420134
919.237338
917.674746
916.735808
916.422598
916.735809
917.674748
919.237343
921.420141
924.218318
927.625702
931.634756
936.236633
941.421165
947.176896
953.491120
960.349886
967.738041
975.639268
984.036113
992.118643
984.036056
976.430556
969.318919
962.716842
956.638941
951.098614
946.108124
941.678473
937.819463
934.539610
931.846151
929.745047
928.240937
927.337138
927.035651
927.337139
928.240939
929.745052
931.846158
934.539611
937.819471
941.678485
946.108134
951.098631
956.638951
962.716861
969.318934
976.430583
984.036102
992.118693
