# vtk DataFile Version 2.0
Unstructured Grid Example
ASCII
DATASET UNSTRUCTURED_GRID

POINTS 961 float
0.1 0.005 0
0.0966667 0.005 0
0.0933333 0.005 0
0.09 0.005 0
0.0866667 0.005 0
0.0833333 0.005 0
0.08 0.005 0
0.0766667 0.005 0
0.0733333 0.005 0
0.07 0.005 0
0.0666667 0.005 0
0.0633333 0.005 0
0.06 0.005 0
0.0566667 0.005 0
0.0533333 0.005 0
0.05 0.005 0
0.0466667 0.005 0
0.0433333 0.005 0
0.04 0.005 0
0.0366667 0.005 0
0.0333333 0.005 0
0.03 0.005 0
0.0266667 0.005 0
0.0233333 0.005 0
0.02 0.005 0
0.0166667 0.005 0
0.0133333 0.005 0
0.01 0.005 0
0.00666667 0.005 0
0.00333333 0.005 0
0 0.005 0
0.1 0.00166667 0
0.0966667 0.00166667 0
0.0933333 0.00166667 0
0.09 0.00166667 0
0.0866667 0.00166667 0
0.0833333 0.00166667 0
0.08 0.00166667 0
0.0766667 0.00166667 0
0.0733333 0.00166667 0
0.07 0.00166667 0
0.0666667 0.00166667 0
0.0633333 0.00166667 0
0.06 0.00166667 0
0.0566667 0.00166667 0
0.0533333 0.00166667 0
0.05 0.00166667 0
0.0466667 0.00166667 0
0.0433333 0.00166667 0
0.04 0.00166667 0
0.0366667 0.00166667 0
0.0333333 0.00166667 0
0.03 0.00166667 0
0.0266667 0.00166667 0
0.0233333 0.00166667 0
0.02 0.00166667 0
0.0166667 0.00166667 0
0.0133333 0.00166667 0
0.01 0.00166667 0
0.00666667 0.00166667 0
0.00333333 0.00166667 0
0 0.00166667 0
0.1 -0.00166667 0
0.0966667 -0.00166667 0
0.0933333 -0.00166667 0
0.09 -0.00166667 0
0.0866667 -0.00166667 0
0.0833333 -0.00166667 0
0.08 -0.00166667 0
0.0766667 -0.00166667 0
0.0733333 -0.00166667 0
0.07 -0.00166667 0
0.0666667 -0.00166667 0
0.0633333 -0.00166667 0
0.06 -0.00166667 0
0.0566667 -0.00166667 0
0.0533333 -0.00166667 0
0.05 -0.00166667 0
0.0466667 -0.00166667 0
0.0433333 -0.00166667 0
0.04 -0.00166667 0
0.0366667 -0.00166667 0
0.0333333 -0.00166667 0
0.03 -0.00166667 0
0.0266667 -0.00166667 0
0.0233333 -0.00166667 0
0.02 -0.00166667 0
0.0166667 -0.00166667 0
0.0133333 -0.00166667 0
0.01 -0.00166667 0
0.00666667 -0.00166667 0
0.00333333 -0.00166667 0
0 -0.00166667 0
0.1 -0.005 0
0.0966667 -0.005 0
0.0933333 -0.005 0
0.09 -0.005 0
0.0866667 -0.005 0
0.0833333 -0.005 0
0.08 -0.005 0
0.0766667 -0.005 0
0.0733333 -0.005 0
0.07 -0.005 0
0.0666667 -0.005 0
0.0633333 -0.005 0
0.06 -0.005 0
0.0566667 -0.005 0
0.0533333 -0.005 0
0.05 -0.005 0
0.0466667 -0.005 0
0.0433333 -0.005 0
0.04 -0.005 0
0.0366667 -0.005 0
0.0333333 -0.005 0
0.03 -0.005 0
0.0266667 -0.005 0
0.0233333 -0.005 0
0.02 -0.005 0
0.0166667 -0.005 0
0.0133333 -0.005 0
0.01 -0.005 0
0.00666667 -0.005 0
0.00333333 -0.005 0
0 -0.005 0
0.1 -0.00833333 0
0.0966667 -0.00833333 0
0.0933333 -0.00833333 0
0.09 -0.00833333 0
0.0866667 -0.00833333 0
0.0833333 -0.00833333 0
0.08 -0.00833333 0
0.0766667 -0.00833333 0
0.0733333 -0.00833333 0
0.07 -0.00833333 0
0.0666667 -0.00833333 0
0.0633333 -0.00833333 0
0.06 -0.00833333 0
0.0566667 -0.00833333 0
0.0533333 -0.00833333 0
0.05 -0.00833333 0
0.0466667 -0.00833333 0
0.0433333 -0.00833333 0
0.04 -0.00833333 0
0.0366667 -0.00833333 0
0.0333333 -0.00833333 0
0.03 -0.00833333 0
0.0266667 -0.00833333 0
0.0233333 -0.00833333 0
0.02 -0.00833333 0
0.0166667 -0.00833333 0
0.0133333 -0.00833333 0
0.01 -0.00833333 0
0.00666667 -0.00833333 0
0.00333333 -0.00833333 0
0 -0.00833333 0
0.1 -0.0116667 0
0.0966667 -0.0116667 0
0.0933333 -0.0116667 0
0.09 -0.0116667 0
0.0866667 -0.0116667 0
0.0833333 -0.0116667 0
0.08 -0.0116667 0
0.0766667 -0.0116667 0
0.0733333 -0.0116667 0
0.07 -0.0116667 0
0.0666667 -0.0116667 0
0.0633333 -0.0116667 0
0.06 -0.0116667 0
0.0566667 -0.0116667 0
0.0533333 -0.0116667 0
0.05 -0.0116667 0
0.0466667 -0.0116667 0
0.0433333 -0.0116667 0
0.04 -0.0116667 0
0.0366667 -0.0116667 0
0.0333333 -0.0116667 0
0.03 -0.0116667 0
0.0266667 -0.0116667 0
0.0233333 -0.0116667 0
0.02 -0.0116667 0
0.0166667 -0.0116667 0
0.0133333 -0.0116667 0
0.01 -0.0116667 0
0.00666667 -0.0116667 0
0.00333333 -0.0116667 0
0 -0.0116667 0
0.1 -0.015 0
0.0966667 -0.015 0
0.0933333 -0.015 0
0.09 -0.015 0
0.0866667 -0.015 0
0.0833333 -0.015 0
0.08 -0.015 0
0.0766667 -0.015 0
0.0733333 -0.015 0
0.07 -0.015 0
0.0666667 -0.015 0
0.0633333 -0.015 0
0.06 -0.015 0
0.0566667 -0.015 0
0.0533333 -0.015 0
0.05 -0.015 0
0.0466667 -0.015 0
0.0433333 -0.015 0
0.04 -0.015 0
0.0366667 -0.015 0
0.0333333 -0.015 0
0.03 -0.015 0
0.0266667 -0.015 0
0.0233333 -0.015 0
0.02 -0.015 0
0.0166667 -0.015 0
0.0133333 -0.015 0
0.01 -0.015 0
0.00666667 -0.015 0
0.00333333 -0.015 0
0 -0.015 0
0.1 -0.0183333 0
0.0966667 -0.0183333 0
0.0933333 -0.0183333 0
0.09 -0.0183333 0
0.0866667 -0.0183333 0
0.0833333 -0.0183333 0
0.08 -0.0183333 0
0.0766667 -0.0183333 0
0.0733333 -0.0183333 0
0.07 -0.0183333 0
0.0666667 -0.0183333 0
0.0633333 -0.0183333 0
0.06 -0.0183333 0
0.0566667 -0.0183333 0
0.0533333 -0.0183333 0
0.05 -0.0183333 0
0.0466667 -0.0183333 0
0.0433333 -0.0183333 0
0.04 -0.0183333 0
0.0366667 -0.0183333 0
0.0333333 -0.0183333 0
0.03 -0.0183333 0
0.0266667 -0.0183333 0
0.0233333 -0.0183333 0
0.02 -0.0183333 0
0.0166667 -0.0183333 0
0.0133333 -0.0183333 0
0.01 -0.0183333 0
0.00666667 -0.0183333 0
0.00333333 -0.0183333 0
0 -0.0183333 0
0.1 -0.0216667 0
0.0966667 -0.0216667 0
0.0933333 -0.0216667 0
0.09 -0.0216667 0
0.0866667 -0.0216667 0
0.0833333 -0.0216667 0
0.08 -0.0216667 0
0.0766667 -0.0216667 0
0.0733333 -0.0216667 0
0.07 -0.0216667 0
0.0666667 -0.0216667 0
0.0633333 -0.0216667 0
0.06 -0.0216667 0
0.0566667 -0.0216667 0
0.0533333 -0.0216667 0
0.05 -0.0216667 0
0.0466667 -0.0216667 0
0.0433333 -0.0216667 0
0.04 -0.0216667 0
0.0366667 -0.0216667 0
0.0333333 -0.0216667 0
0.03 -0.0216667 0
0.0266667 -0.0216667 0
0.0233333 -0.0216667 0
0.02 -0.0216667 0
0.0166667 -0.0216667 0
0.0133333 -0.0216667 0
0.01 -0.0216667 0
0.00666667 -0.0216667 0
0.00333333 -0.0216667 0
0 -0.0216667 0
0.1 -0.025 0
0.0966667 -0.025 0
0.0933333 -0.025 0
0.09 -0.025 0
0.0866667 -0.025 0
0.0833333 -0.025 0
0.08 -0.025 0
0.0766667 -0.025 0
0.0733333 -0.025 0
0.07 -0.025 0
0.0666667 -0.025 0
0.0633333 -0.025 0
0.06 -0.025 0
0.0566667 -0.025 0
0.0533333 -0.025 0
0.05 -0.025 0
0.0466667 -0.025 0
0.0433333 -0.025 0
0.04 -0.025 0
0.0366667 -0.025 0
0.0333333 -0.025 0
0.03 -0.025 0
0.0266667 -0.025 0
0.0233333 -0.025 0
0.02 -0.025 0
0.0166667 -0.025 0
0.0133333 -0.025 0
0.01 -0.025 0
0.00666667 -0.025 0
0.00333333 -0.025 0
0 -0.025 0
0.1 -0.0283333 0
0.0966667 -0.0283333 0
0.0933333 -0.0283333 0
0.09 -0.0283333 0
0.0866667 -0.0283333 0
0.0833333 -0.0283333 0
0.08 -0.0283333 0
0.0766667 -0.0283333 0
0.0733333 -0.0283333 0
0.07 -0.0283333 0
0.0666667 -0.0283333 0
0.0633333 -0.0283333 0
0.06 -0.0283333 0
0.0566667 -0.0283333 0
0.0533333 -0.0283333 0
0.05 -0.0283333 0
0.0466667 -0.0283333 0
0.0433333 -0.0283333 0
0.04 -0.0283333 0
0.0366667 -0.0283333 0
0.0333333 -0.0283333 0
0.03 -0.0283333 0
0.0266667 -0.0283333 0
0.0233333 -0.0283333 0
0.02 -0.0283333 0
0.0166667 -0.0283333 0
0.0133333 -0.0283333 0
0.01 -0.0283333 0
0.00666667 -0.0283333 0
0.00333333 -0.0283333 0
0 -0.0283333 0
0.1 -0.0316667 0
0.0966667 -0.0316667 0
0.0933333 -0.0316667 0
0.09 -0.0316667 0
0.0866667 -0.0316667 0
0.0833333 -0.0316667 0
0.08 -0.0316667 0
0.0766667 -0.0316667 0
0.0733333 -0.0316667 0
0.07 -0.0316667 0
0.0666667 -0.0316667 0
0.0633333 -0.0316667 0
0.06 -0.0316667 0
0.0566667 -0.0316667 0
0.0533333 -0.0316667 0
0.05 -0.0316667 0
0.0466667 -0.0316667 0
0.0433333 -0.0316667 0
0.04 -0.0316667 0
0.0366667 -0.0316667 0
0.0333333 -0.0316667 0
0.03 -0.0316667 0
0.0266667 -0.0316667 0
0.0233333 -0.0316667 0
0.02 -0.0316667 0
0.0166667 -0.0316667 0
0.0133333 -0.0316667 0
0.01 -0.0316667 0
0.00666667 -0.0316667 0
0.00333333 -0.0316667 0
0 -0.0316667 0
0.1 -0.035 0
0.0966667 -0.035 0
0.0933333 -0.035 0
0.09 -0.035 0
0.0866667 -0.035 0
0.0833333 -0.035 0
0.08 -0.035 0
0.0766667 -0.035 0
0.0733333 -0.035 0
0.07 -0.035 0
0.0666667 -0.035 0
0.0633333 -0.035 0
0.06 -0.035 0
0.0566667 -0.035 0
0.0533333 -0.035 0
0.05 -0.035 0
0.0466667 -0.035 0
0.0433333 -0.035 0
0.04 -0.035 0
0.0366667 -0.035 0
0.0333333 -0.035 0
0.03 -0.035 0
0.0266667 -0.035 0
0.0233333 -0.035 0
0.02 -0.035 0
0.0166667 -0.035 0
0.0133333 -0.035 0
0.01 -0.035 0
0.00666667 -0.035 0
0.00333333 -0.035 0
0 -0.035 0
0.1 -0.0383333 0
0.0966667 -0.0383333 0
0.0933333 -0.0383333 0
0.09 -0.0383333 0
0.0866667 -0.0383333 0
0.0833333 -0.0383333 0
0.08 -0.0383333 0
0.0766667 -0.0383333 0
0.0733333 -0.0383333 0
0.07 -0.0383333 0
0.0666667 -0.0383333 0
0.0633333 -0.0383333 0
0.06 -0.0383333 0
0.0566667 -0.0383333 0
0.0533333 -0.0383333 0
0.05 -0.0383333 0
0.0466667 -0.0383333 0
0.0433333 -0.0383333 0
0.04 -0.0383333 0
0.0366667 -0.0383333 0
0.0333333 -0.0383333 0
0.03 -0.0383333 0
0.0266667 -0.0383333 0
0.0233333 -0.0383333 0
0.02 -0.0383333 0
0.0166667 -0.0383333 0
0.0133333 -0.0383333 0
0.01 -0.0383333 0
0.00666667 -0.0383333 0
0.00333333 -0.0383333 0
0 -0.0383333 0
0.1 -0.0416667 0
0.0966667 -0.0416667 0
0.0933333 -0.0416667 0
0.09 -0.0416667 0
0.0866667 -0.0416667 0
0.0833333 -0.0416667 0
0.08 -0.0416667 0
0.0766667 -0.0416667 0
0.0733333 -0.0416667 0
0.07 -0.0416667 0
0.0666667 -0.0416667 0
0.0633333 -0.0416667 0
0.06 -0.0416667 0
0.0566667 -0.0416667 0
0.0533333 -0.0416667 0
0.05 -0.0416667 0
0.0466667 -0.0416667 0
0.0433333 -0.0416667 0
0.04 -0.0416667 0
0.0366667 -0.0416667 0
0.0333333 -0.0416667 0
0.03 -0.0416667 0
0.0266667 -0.0416667 0
0.0233333 -0.0416667 0
0.02 -0.0416667 0
0.0166667 -0.0416667 0
0.0133333 -0.0416667 0
0.01 -0.0416667 0
0.00666667 -0.0416667 0
0.00333333 -0.0416667 0
0 -0.0416667 0
0.1 -0.045 0
0.0966667 -0.045 0
0.0933333 -0.045 0
0.09 -0.045 0
0.0866667 -0.045 0
0.0833333 -0.045 0
0.08 -0.045 0
0.0766667 -0.045 0
0.0733333 -0.045 0
0.07 -0.045 0
0.0666667 -0.045 0
0.0633333 -0.045 0
0.06 -0.045 0
0.0566667 -0.045 0
0.0533333 -0.045 0
0.05 -0.045 0
0.0466667 -0.045 0
0.0433333 -0.045 0
0.04 -0.045 0
0.0366667 -0.045 0
0.0333333 -0.045 0
0.03 -0.045 0
0.0266667 -0.045 0
0.0233333 -0.045 0
0.02 -0.045 0
0.0166667 -0.045 0
0.0133333 -0.045 0
0.01 -0.045 0
0.00666667 -0.045 0
0.00333333 -0.045 0
0 -0.045 0
0.1 -0.0483333 0
0.0966667 -0.0483333 0
0.0933333 -0.0483333 0
0.09 -0.0483333 0
0.0866667 -0.0483333 0
[...]
POINT_DATA 961
SCALARS Temp float 1
LOOKUP_TABLE default
651.194224
629.920059
610.033168
591.573094
574.570220
559.046291
545.014888
532.482687
521.450387
511.914250
503.867296
497.300780
492.205525
488.573027
486.396465
485.671450
486.396466
488.573028
492.205531
497.300789
503.867290
511.914258
521.450403
532.482692
545.014909
559.046292
574.570240
591.573098
610.033193
629.920118
651.194269
629.920091
607.821234
587.163422
567.987741
550.325746
534.200021
519.624677
506.606649
495.146665
485.240841
476.881930
470.060847
464.768061
460.994740
458.733797
457.980675
458.733798
460.994741
464.768068
470.060856
476.881924
485.240850
495.146682
506.606655
519.624699
534.200022
550.325766
567.987745
587.163446
607.821285
629.920120
610.033173
587.163401
565.784929
545.940280
527.662109
510.973792
495.889932
482.417709
470.557880
460.306428
451.655856
444.596767
439.119297
435.214310
432.874474
432.095071
432.874474
435.214311
439.119304
444.596776
451.655850
460.306437
470.557897
482.417715
495.889955
510.973792
527.662129
545.940282
565.784951
587.163446
610.033194
591.573082
567.987702
545.940262
525.474618
506.624448
489.413863
473.857926
459.964047
447.733010
437.160678
428.239324
420.959263
415.310326
411.283094
408.870008
408.066206
408.870008
411.283095
415.310333
420.959272
428.239318
437.160687
447.733027
459.964052
473.857949
489.413862
506.624467
525.474617
545.940281
567.987744
591.573098
574.570227
550.325725
527.662112
506.624470
487.247422
469.555757
453.564964
439.282665
426.709673
415.841741
406.670935
399.187304
393.380401
389.240548
386.759979
385.933698
386.759979
389.240549
393.380408
399.187313
406.670929
415.841750
426.709690
439.282670
453.564986
469.555755
487.247440
506.624467
527.662128
550.325765
574.570241
559.046285
534.199987
510.973781
489.413871
469.555743
451.424803
435.036934
420.399952
407.514700
396.376833
386.978227
379.308691
373.357529
369.114826
366.572629
365.725819
366.572629
369.114827
373.357536
379.308701
386.978220
396.376842
407.514717
420.399957
435.036956
451.424800
469.555760
489.413867
510.973795
534.200025
559.046296
545.014901
519.624661
495.889941
473.857955
453.564970
435.036956
418.290146
403.332539
390.165003
378.783109
369.178563
361.340960
355.259378
350.923690
348.325775
347.460405
348.325776
350.923691
355.259385
361.340970
369.178555
378.783117
390.165020
403.332543
418.290168
435.036951
453.564987
473.857949
495.889954
519.624698
545.014910
532.482688
506.606621
482.417706
459.964064
439.282658
420.399961
403.332525
388.088511
374.668810
363.068921
353.280401
345.292655
339.094559
334.675801
332.028108
331.146157
332.028109
334.675802
339.094566
345.292665
353.280393
363.068930
374.668827
388.088514
403.332547
420.399956
439.282674
459.964057
482.417718
506.606658
532.482697
521.450400
495.146649
470.557889
447.733040
426.709679
407.514722
390.165003
374.668824
361.027105
349.235277
339.284769
331.164820
324.864131
320.372227
317.680703
316.784152
317.680704
320.372228
324.864138
331.164830
339.284761
349.235286
361.027122
374.668827
390.165024
407.514716
426.709694
447.733031
470.557900
495.146684
521.450408
511.914251
485.240812
460.306425
437.160695
415.841735
396.376842
378.783094
363.068921
349.235262
337.277497
327.186942
318.952695
312.563306
308.008161
305.278741
304.369566
305.278741
308.008162
312.563314
318.952705
327.186933
337.277505
349.235279
363.068924
378.783116
396.376835
415.841749
437.160686
460.306435
485.240847
511.914257
503.867288
476.881892
451.655843
428.239333
406.670919
386.978226
369.178538
353.280390
339.284744
327.186931
316.978178
308.647464
302.183212
297.574689
294.813284
293.893454
294.813284
297.574690
302.183219
308.647474
316.978170
327.186940
339.284761
353.280393
369.178559
386.978219
406.670933
428.239323
451.655853
476.881927
503.867295
497.300784
470.060821
444.596766
420.959284
399.187300
379.308704
361.340949
345.292658
331.164809
318.952699
308.647478
300.238031
293.712677
289.060589
286.273078
285.344552
286.273078
289.060590
293.712684
300.238041
308.647470
318.952707
331.164826
345.292661
361.340970
379.308697
399.187314
420.959273
444.596776
470.060856
497.300790
492.205528
464.768033
439.119296
415.310346
393.380396
373.357541
355.259365
339.094561
324.864119
312.563309
302.183225
293.712676
287.139903
282.454006
279.646234
278.710959
279.646234
282.454006
287.139910
293.712686
302.183216
312.563317
324.864136
339.094563
355.259387
373.357533
393.380410
415.310335
439.119305
464.768069
492.205534
488.573026
460.994708
435.214304
411.283109
389.240538
369.114833
350.923673
334.675798
320.372210
308.008159
297.574697
289.060583
282.454000
277.743996
274.921779
273.981691
274.921779
277.743997
282.454008
289.060593
297.574689
308.008167
320.372227
334.675800
350.923694
369.114826
389.240552
411.283099
435.214313
460.994743
488.573032
486.396465
458.733765
432.874468
408.870024
386.759970
366.572636
348.325758
332.028106
317.680687
305.278739
294.813293
286.273072
279.646230
274.921780
272.090906
271.147934
272.090906
274.921780
279.646237
286.273083
294.813284
305.278748
317.680704
332.028109
348.325780
366.572629
386.759984
408.870014
432.874478
458.733801
486.396471
485.671450
457.980643
432.095066
408.066223
385.933690
365.725827
347.460389
331.146156
316.784136
304.369565
293.893464
285.344547
278.710955
273.981693
271.147936
270.204004
271.147936
273.981694
278.710963
285.344557
293.893456
304.369574
316.784153
331.146159
347.460412
365.725820
385.933705
408.066213
432.095076
457.980680
485.671457
486.396464
458.733765
432.874468
408.870024
386.759970
366.572636
348.325758
332.028106
317.680687
305.278740
294.813293
286.273073
279.646230
274.921780
272.090906
271.147935
272.090907
274.921781
279.646238
286.273083
294.813285
305.278749
317.680705
332.028110
348.325781
366.572630
386.759985
408.870015
432.874479
458.733802
486.396472
488.573026
460.994707
435.214303
411.283109
389.240538
369.114833
350.923673
334.675798
320.372210
308.008159
297.574698
289.060583
282.454001
277.743997
274.921780
273.981692
274.921780
277.743998
282.454009
289.060594
297.574690
308.008169
320.372229
334.675802
350.923696
369.114828
389.240554
411.283101
435.214315
460.994745
488.573034
492.205527
464.768033
439.119295
415.310345
393.380396
373.357541
355.259365
339.094561
324.864119
312.563310
302.183226
293.712677
287.139904
282.454007
279.646235
278.710960
279.646236
282.454008
287.139913
293.712688
302.183219
312.563320
324.864138
339.094566
355.259390
373.357536
393.380413
415.310339
439.119308
464.768072
492.205537
497.300783
470.060820
444.596766
420.959283
399.187300
379.308704
361.340949
345.292659
331.164810
318.952700
308.647480
300.238032
293.712679
289.060591
286.273080
285.344554
286.273081
289.060593
293.712687
300.238044
308.647473
318.952711
331.164830
345.292665
361.340975
379.308701
399.187319
420.959278
444.596780
470.060860
497.300794
503.867292
476.881895
451.655847
428.239337
406.670923
386.978231
369.178543
353.280396
339.284750
327.186938
316.978185
308.647471
302.183219
297.574697
294.813292
293.893462
294.813293
297.574699
302.183228
308.647483
316.978179
327.186949
339.284771
353.280403
369.178570
386.978229
406.670944
428.239333
451.655864
476.881937
503.867304
511.914245
485.240806
460.306418
437.160689
415.841728
396.376836
378.783088
363.068915
349.235257
337.277492
327.186937
318.952691
312.563302
308.008157
305.278738
304.369563
305.278739
308.008160
312.563312
318.952703
327.186932
337.277505
349.235279
363.068924
378.783116
396.376836
415.841750
437.160688
460.306437
485.240850
511.914260
521.450404
495.146653
470.557894
447.733045
426.709685
407.514728
390.165009
374.668831
361.027113
349.235285
339.284778
331.164830
324.864141
320.372238
317.680714
316.784163
317.680716
320.372240
324.864151
331.164843
339.284774
349.235299
361.027136
374.668841
390.165039
407.514731
426.709709
447.733046
470.557915
495.146699
521.450422
532.482679
506.606612
482.417697
459.964055
439.282650
420.399953
403.332517
388.088503
374.668803
363.068915
353.280395
345.292649
339.094553
334.675796
332.028104
331.146153
332.028105
334.675799
339.094563
345.292663
353.280392
363.068929
374.668827
388.088515
403.332548
420.399958
439.282676
459.964060
482.417721
506.606661
532.482700
545.014909
519.624670
495.889950
473.857965
453.564982
435.036968
418.290159
403.332553
390.165018
378.783125
369.178579
361.340978
355.259396
350.923709
348.325795
347.460425
348.325796
350.923712
355.259406
361.340992
369.178577
378.783140
390.165043
403.332567
418.290192
435.036976
453.565011
473.857974
495.889978
519.624722
545.014933
559.046281
534.199982
510.973777
489.413867
469.555740
451.424802
435.036933
420.399952
407.514700
396.376834
386.978229
379.308694
373.357533
369.114831
366.572634
365.725824
366.572635
369.114834
373.357543
379.308709
386.978228
396.376850
407.514726
420.399967
435.036967
451.424812
469.555772
489.413880
510.973809
534.200039
559.046310
574.570208
550.325705
527.662092
506.624450
487.247404
469.555739
453.564947
439.282649
426.709657
415.841727
406.670921
399.187290
393.380388
389.240535
386.759967
385.933687
386.759969
389.240539
393.380398
399.187305
406.670921
415.841743
426.709684
439.282665
453.564983
469.555753
487.247440
506.624468
527.662130
550.325768
574.570244
591.573079
567.987699
545.940261
525.474618
506.624450
489.413866
473.857931
459.964053
447.733018
437.160687
428.239334
420.959273
415.310337
411.283106
408.870020
408.066219
408.870022
411.283109
415.310348
420.959288
428.239334
437.160704
447.733045
459.964071
473.857968
489.413883
506.624489
525.474641
545.940306
567.987770
591.573124
610.033149
587.163378
565.784907
545.940260
527.662091
510.973775
495.889916
482.417695
470.557867
460.306416
451.655844
444.596756
439.119287
435.214300
432.874464
432.095063
432.874466
435.214304
439.119297
444.596770
451.655845
460.306433
470.557894
482.417713
495.889954
510.973794
527.662133
545.940289
565.784960
587.163460
610.033208
629.920087
607.821232
587.163425
567.987749
550.325756
534.200034
519.624692
506.606666
495.146684
485.240861
476.881951
470.060869
464.768084
460.994764
458.733822
457.980700
458.733823
460.994767
464.768095
470.060884
476.881952
485.240878
495.146711
506.606685
519.624730
534.200054
550.325800
567.987781
587.163486
607.821329
629.920172
651.194186
629.920029
610.033150
591.573080
574.570209
559.046282
545.014880
532.482681
521.450383
511.914246
503.867293
497.300778
492.205523
488.573026
486.396465
485.671450
486.396467
488.573030
492.205533
497.300791
503.867294
511.914263
521.450409
532.482699
545.014917
559.046302
574.570252
591.573113
610.033212
629.920145
651.194312
