# vtk DataFile Version 2.0
Unstructured Grid Example
ASCII
DATASET UNSTRUCTURED_GRID

POINTS 961 float
0.1 0.005 0
0.0966667 0.005 0
0.0933333 0.005 0
0.09 0.005 0
0.0866667 0.005 0
0.0833333 0.005 0
0.08 0.005 0
0.0766667 0.005 0
0.0733333 0.005 0
0.07 0.005 0
0.0666667 0.005 0
0.0633333 0.005 0
0.06 0.005 0
0.0566667 0.005 0
0.0533333 0.005 0
0.05 0.005 0
0.0466667 0.005 0
0.0433333 0.005 0
0.04 0.005 0
0.0366667 0.005 0
0.0333333 0.005 0
0.03 0.005 0
0.0266667 0.005 0
0.0233333 0.005 0
0.02 0.005 0
0.0166667 0.005 0
0.0133333 0.005 0
0.01 0.005 0
0.00666667 0.005 0
0.00333333 0.005 0
0 0.005 0
0.1 0.00166667 0
0.0966667 0.00166667 0
0.0933333 0.00166667 0
0.09 0.00166667 0
0.0866667 0.00166667 0
0.0833333 0.00166667 0
0.08 0.00166667 0
0.0766667 0.00166667 0
0.0733333 0.00166667 0
0.07 0.00166667 0
0.0666667 0.00166667 0
0.0633333 0.00166667 0
0.06 0.00166667 0
0.0566667 0.00166667 0
0.0533333 0.00166667 0
0.05 0.00166667 0
0.0466667 0.00166667 0
0.0433333 0.00166667 0
0.04 0.00166667 0
0.0366667 0.00166667 0
0.0333333 0.00166667 0
0.03 0.00166667 0
0.0266667 0.00166667 0
0.0233333 0.00166667 0
0.02 0.00166667 0
0.0166667 0.00166667 0
0.0133333 0.00166667 0
0.01 0.00166667 0
0.00666667 0.00166667 0
0.00333333 0.00166667 0
0 0.00166667 0
0.1 -0.00166667 0
0.0966667 -0.00166667 0
0.0933333 -0.00166667 0
0.09 -0.00166667 0
0.0866667 -0.00166667 0
0.0833333 -0.00166667 0
0.08 -0.00166667 0
0.0766667 -0.00166667 0
0.0733333 -0.00166667 0
0.07 -0.00166667 0
0.0666667 -0.00166667 0
0.0633333 -0.00166667 0
0.06 -0.00166667 0
0.0566667 -0.00166667 0
0.0533333 -0.00166667 0
0.05 -0.00166667 0
0.0466667 -0.00166667 0
0.0433333 -0.00166667 0
0.04 -0.00166667 0
0.0366667 -0.00166667 0
0.0333333 -0.00166667 0
0.03 -0.00166667 0
0.0266667 -0.00166667 0
0.0233333 -0.00166667 0
0.02 -0.00166667 0
0.0166667 -0.00166667 0
0.0133333 -0.00166667 0
0.01 -0.00166667 0
0.00666667 -0.00166667 0
0.00333333 -0.00166667 0
0 -0.00166667 0
0.1 -0.005 0
0.0966667 -0.005 0
0.0933333 -0.005 0
0.09 -0.005 0
0.0866667 -0.005 0
0.0833333 -0.005 0
0.08 -0.005 0
0.0766667 -0.005 0
0.0733333 -0.005 0
0.07 -0.005 0
0.0666667 -0.005 0
0.0633333 -0.005 0
0.06 -0.005 0
0.0566667 -0.005 0
0.0533333 -0.005 0
0.05 -0.005 0
0.0466667 -0.005 0
0.0433333 -0.005 0
0.04 -0.005 0
0.0366667 -0.005 0
0.0333333 -0.005 0
0.03 -0.005 0
0.0266667 -0.005 0
0.0233333 -0.005 0
0.02 -0.005 0
0.0166667 -0.005 0
0.0133333 -0.005 0
0.01 -0.005 0
0.00666667 -0.005 0
0.00333333 -0.005 0
0 -0.005 0
0.1 -0.00833333 0
0.0966667 -0.00833333 0
0.0933333 -0.00833333 0
0.09 -0.00833333 0
0.0866667 -0.00833333 0
0.0833333 -0.00833333 0
0.08 -0.00833333 0
0.0766667 -0.00833333 0
0.0733333 -0.00833333 0
0.07 -0.00833333 0
0.0666667 -0.00833333 0
0.0633333 -0.00833333 0
0.06 -0.00833333 0
0.0566667 -0.00833333 0
0.0533333 -0.00833333 0
0.05 -0.00833333 0
0.0466667 -0.00833333 0
0.0433333 -0.00833333 0
0.04 -0.00833333 0
0.0366667 -0.00833333 0
0.0333333 -0.00833333 0
0.03 -0.00833333 0
0.0266667 -0.00833333 0
0.0233333 -0.00833333 0
0.02 -0.00833333 0
0.0166667 -0.00833333 0
0.0133333 -0.00833333 0
0.01 -0.00833333 0
0.00666667 -0.00833333 0
0.00333333 -0.00833333 0
0 -0.00833333 0
0.1 -0.0116667 0
0.0966667 -0.0116667 0
0.0933333 -0.0116667 0
0.09 -0.0116667 0
0.0866667 -0.0116667 0
0.0833333 -0.0116667 0
0.08 -0.0116667 0
0.0766667 -0.0116667 0
0.0733333 -0.0116667 0
0.07 -0.0116667 0
0.0666667 -0.0116667 0
0.0633333 -0.0116667 0
0.06 -0.0116667 0
0.0566667 -0.0116667 0
0.0533333 -0.0116667 0
0.05 -0.0116667 0
0.0466667 -0.0116667 0
0.0433333 -0.0116667 0
0.04 -0.0116667 0
0.0366667 -0.0116667 0
0.0333333 -0.0116667 0
0.03 -0.0116667 0
0.0266667 -0.0116667 0
0.0233333 -0.0116667 0
0.02 -0.0116667 0
0.0166667 -0.0116667 0
0.0133333 -0.0116667 0
0.01 -0.0116667 0
0.00666667 -0.0116667 0
0.00333333 -0.0116667 0
0 -0.0116667 0
0.1 -0.015 0
0.0966667 -0.015 0
0.0933333 -0.015 0
0.09 -0.015 0
0.0866667 -0.015 0
0.0833333 -0.015 0
0.08 -0.015 0
0.0766667 -0.015 0
0.0733333 -0.015 0
0.07 -0.015 0
0.0666667 -0.015 0
0.0633333 -0.015 0
0.06 -0.015 0
0.0566667 -0.015 0
0.0533333 -0.015 0
0.05 -0.015 0
0.0466667 -0.015 0
0.0433333 -0.015 0
0.04 -0.015 0
0.0366667 -0.015 0
0.0333333 -0.015 0
0.03 -0.015 0
0.0266667 -0.015 0
0.0233333 -0.015 0
0.02 -0.015 0
0.0166667 -0.015 0
0.0133333 -0.015 0
0.01 -0.015 0
0.00666667 -0.015 0
0.00333333 -0.015 0
0 -0.015 0
0.1 -0.0183333 0
0.0966667 -0.0183333 0
0.0933333 -0.0183333 0
0.09 -0.0183333 0
0.0866667 -0.0183333 0
0.0833333 -0.0183333 0
0.08 -0.0183333 0
0.0766667 -0.0183333 0
0.0733333 -0.0183333 0
0.07 -0.0183333 0
0.0666667 -0.0183333 0
0.0633333 -0.0183333 0
0.06 -0.0183333 0
0.0566667 -0.0183333 0
0.0533333 -0.0183333 0
0.05 -0.0183333 0
0.0466667 -0.0183333 0
0.0433333 -0.0183333 0
0.04 -0.0183333 0
0.0366667 -0.0183333 0
0.0333333 -0.0183333 0
0.03 -0.0183333 0
0.0266667 -0.0183333 0
0.0233333 -0.0183333 0
0.02 -0.0183333 0
0.0166667 -0.0183333 0
0.0133333 -0.0183333 0
0.01 -0.0183333 0
0.00666667 -0.0183333 0
0.00333333 -0.0183333 0
0 -0.0183333 0
0.1 -0.0216667 0
0.0966667 -0.0216667 0
0.0933333 -0.0216667 0
0.09 -0.0216667 0
0.0866667 -0.0216667 0
0.0833333 -0.0216667 0
0.08 -0.0216667 0
0.0766667 -0.0216667 0
0.0733333 -0.0216667 0
0.07 -0.0216667 0
0.0666667 -0.0216667 0
0.0633333 -0.0216667 0
0.06 -0.0216667 0
0.0566667 -0.0216667 0
0.0533333 -0.0216667 0
0.05 -0.0216667 0
0.0466667 -0.0216667 0
0.0433333 -0.0216667 0
0.04 -0.0216667 0
0.0366667 -0.0216667 0
0.0333333 -0.0216667 0
0.03 -0.0216667 0
0.0266667 -0.0216667 0
0.0233333 -0.0216667 0
0.02 -0.0216667 0
0.0166667 -0.0216667 0
0.0133333 -0.0216667 0
0.01 -0.0216667 0
0.00666667 -0.0216667 0
0.00333333 -0.0216667 0
0 -0.0216667 0
0.1 -0.025 0
0.0966667 -0.025 0
0.0933333 -0.025 0
0.09 -0.025 0
0.0866667 -0.025 0
0.0833333 -0.025 0
0.08 -0.025 0
0.0766667 -0.025 0
0.0733333 -0.025 0
0.07 -0.025 0
0.0666667 -0.025 0
0.0633333 -0.025 0
0.06 -0.025 0
0.0566667 -0.025 0
0.0533333 -0.025 0
0.05 -0.025 0
0.0466667 -0.025 0
0.0433333 -0.025 0
0.04 -0.025 0
0.0366667 -0.025 0
0.0333333 -0.025 0
0.03 -0.025 0
0.0266667 -0.025 0
0.0233333 -0.025 0
0.02 -0.025 0
0.0166667 -0.025 0
0.0133333 -0.025 0
0.01 -0.025 0
0.00666667 -0.025 0
0.00333333 -0.025 0
0 -0.025 0
0.1 -0.0283333 0
0.0966667 -0.0283333 0
0.0933333 -0.0283333 0
0.09 -0.0283333 0
0.0866667 -0.0283333 0
0.0833333 -0.0283333 0
0.08 -0.0283333 0
0.0766667 -0.0283333 0
0.0733333 -0.0283333 0
0.07 -0.0283333 0
0.0666667 -0.0283333 0
0.0633333 -0.0283333 0
0.06 -0.0283333 0
0.0566667 -0.0283333 0
0.0533333 -0.0283333 0
0.05 -0.0283333 0
0.0466667 -0.0283333 0
0.0433333 -0.0283333 0
0.04 -0.0283333 0
0.0366667 -0.0283333 0
0.0333333 -0.0283333 0
0.03 -0.0283333 0
0.0266667 -0.0283333 0
0.0233333 -0.0283333 0
0.02 -0.0283333 0
0.0166667 -0.0283333 0
0.0133333 -0.0283333 0
0.01 -0.0283333 0
0.00666667 -0.0283333 0
0.00333333 -0.0283333 0
0 -0.0283333 0
0.1 -0.0316667 0
0.0966667 -0.0316667 0
0.0933333 -0.0316667 0
0.09 -0.0316667 0
0.0866667 -0.0316667 0
0.0833333 -0.0316667 0
0.08 -0.0316667 0
0.0766667 -0.0316667 0
0.0733333 -0.0316667 0
0.07 -0.0316667 0
0.0666667 -0.0316667 0
0.0633333 -0.0316667 0
0.06 -0.0316667 0
0.0566667 -0.0316667 0
0.0533333 -0.0316667 0
0.05 -0.0316667 0
0.0466667 -0.0316667 0
0.0433333 -0.0316667 0
0.04 -0.0316667 0
0.0366667 -0.0316667 0
0.0333333 -0.0316667 0
0.03 -0.0316667 0
0.0266667 -0.0316667 0
0.0233333 -0.0316667 0
0.02 -0.0316667 0
0.0166667 -0.0316667 0
0.0133333 -0.0316667 0
0.01 -0.0316667 0
0.00666667 -0.0316667 0
0.00333333 -0.0316667 0
0 -0.0316667 0
0.1 -0.035 0
0.0966667 -0.035 0
0.0933333 -0.035 0
0.09 -0.035 0
0.0866667 -0.035 0
0.0833333 -0.035 0
0.08 -0.035 0
0.0766667 -0.035 0
0.0733333 -0.035 0
0.07 -0.035 0
0.0666667 -0.035 0
0.0633333 -0.035 0
0.06 -0.035 0
0.0566667 -0.035 0
0.0533333 -0.035 0
0.05 -0.035 0
0.0466667 -0.035 0
0.0433333 -0.035 0
0.04 -0.035 0
0.0366667 -0.035 0
0.0333333 -0.035 0
0.03 -0.035 0
0.0266667 -0.035 0
0.0233333 -0.035 0
0.02 -0.035 0
0.0166667 -0.035 0
0.0133333 -0.035 0
0.01 -0.035 0
0.00666667 -0.035 0
0.00333333 -0.035 0
0 -0.035 0
0.1 -0.0383333 0
0.0966667 -0.0383333 0
0.0933333 -0.0383333 0
0.09 -0.0383333 0
0.0866667 -0.0383333 0
0.0833333 -0.0383333 0
0.08 -0.0383333 0
0.0766667 -0.0383333 0
0.0733333 -0.0383333 0
0.07 -0.0383333 0
0.0666667 -0.0383333 0
0.0633333 -0.0383333 0
0.06 -0.0383333 0
0.0566667 -0.0383333 0
0.0533333 -0.0383333 0
0.05 -0.0383333 0
0.0466667 -0.0383333 0
0.0433333 -0.0383333 0
0.04 -0.0383333 0
0.0366667 -0.0383333 0
0.0333333 -0.0383333 0
0.03 -0.0383333 0
0.0266667 -0.0383333 0
0.0233333 -0.0383333 0
0.02 -0.0383333 0
0.0166667 -0.0383333 0
0.0133333 -0.0383333 0
0.01 -0.0383333 0
0.00666667 -0.0383333 0
0.00333333 -0.0383333 0
0 -0.0383333 0
0.1 -0.0416667 0
0.0966667 -0.0416667 0
0.0933333 -0.0416667 0
0.09 -0.0416667 0
0.0866667 -0.0416667 0
0.0833333 -0.0416667 0
0.08 -0.0416667 0
0.0766667 -0.0416667 0
0.0733333 -0.0416667 0
0.07 -0.0416667 0
0.0666667 -0.0416667 0
0.0633333 -0.0416667 0
0.06 -0.0416667 0
0.0566667 -0.0416667 0
0.0533333 -0.0416667 0
0.05 -0.0416667 0
0.0466667 -0.0416667 0
0.0433333 -0.0416667 0
0.04 -0.0416667 0
0.0366667 -0.0416667 0
0.0333333 -0.0416667 0
0.03 -0.0416667 0
0.0266667 -0.0416667 0
0.0233333 -0.0416667 0
0.02 -0.0416667 0
0.0166667 -0.0416667 0
0.0133333 -0.0416667 0
0.01 -0.0416667 0
0.00666667 -0.0416667 0
0.00333333 -0.0416667 0
0 -0.0416667 0
0.1 -0.045 0
0.0966667 -0.045 0
0.0933333 -0.045 0
0.09 -0.045 0
0.0866667 -0.045 0
0.0833333 -0.045 0
0.08 -0.045 0
0.0766667 -0.045 0
0.0733333 -0.045 0
0.07 -0.045 0
0.0666667 -0.045 0
0.0633333 -0.045 0
0.06 -0.045 0
0.0566667 -0.045 0
0.0533333 -0.045 0
0.05 -0.045 0
0.0466667 -0.045 0
0.0433333 -0.045 0
0.04 -0.045 0
0.0366667 -0.045 0
0.0333333 -0.045 0
0.03 -0.045 0
0.0266667 -0.045 0
0.0233333 -0.045 0
0.02 -0.045 0
0.0166667 -0.045 0
0.0133333 -0.045 0
0.01 -0.045 0
0.00666667 -0.045 0
0.00333333 -0.045 0
0 -0.045 0
0.1 -0.0483333 0
0.0966667 -0.0483333 0
0.0933333 -0.0483333 0
0.09 -0.0483333 0
0.0866667 -0.0483333 0
[...]
POINT_DATA 961
SCALARS Temp float 1
LOOKUP_TABLE default
312.451172
280.850083
256.872948
239.756651
228.279073
221.052127
216.776357
214.395841
213.146023
212.525658
212.233712
212.103072
212.047348
212.024718
212.016224
212.014083
212.016224
212.024718
212.047348
212.103072
212.233712
212.525658
213.146024
214.395842
216.776361
221.052126
228.279082
239.756650
256.872968
280.850153
312.451227
280.850129
248.123540
223.291761
205.564737
193.677091
186.191545
181.762510
179.296503
178.001709
177.358972
177.056476
176.921104
176.863358
176.839905
176.831101
176.828882
176.831101
176.839905
176.863358
176.921104
177.056475
177.358973
178.001710
179.296503
181.762515
186.191544
193.677100
205.564735
223.291780
248.123595
280.850155
256.872955
223.291733
197.809637
179.616592
167.414959
159.730597
155.183190
152.650823
151.320934
150.660645
150.349823
150.210697
150.151337
150.127224
150.118171
150.115889
150.118171
150.127224
150.151337
150.210697
150.349823
150.660645
151.320935
152.650824
155.183194
159.730595
167.414966
179.616588
197.809650
223.291779
256.872969
239.756642
205.564692
179.616577
161.088337
148.659818
140.831016
136.197086
133.615894
132.260000
131.586610
131.269529
131.127559
131.066967
131.042347
131.033101
131.030770
131.033101
131.042347
131.066967
131.127559
131.269529
131.586610
132.260001
133.615894
136.197090
140.831014
148.659825
161.088331
179.616586
205.564733
239.756650
228.279078
193.677060
167.414958
148.659834
136.076864
128.149074
123.455399
120.840215
119.466058
118.783384
118.461826
118.317803
118.256315
118.231322
118.221933
118.219565
118.221933
118.231322
118.256315
118.317804
118.461826
118.783384
119.466059
120.840215
123.455403
128.149071
136.076870
148.659825
167.414965
193.677098
228.279082
221.052125
186.191507
159.730590
140.831025
128.149067
120.157335
115.424723
112.787169
111.400870
110.711956
110.387357
110.241924
110.179812
110.154557
110.145067
110.142673
110.145067
110.154557
110.179812
110.241924
110.387356
110.711957
111.400871
112.787169
115.424727
120.157331
128.149072
140.831015
159.730595
186.191543
221.052127
216.776361
181.762478
155.183188
136.197101
123.455399
115.424729
110.668168
108.016702
106.622762
105.929875
105.603313
105.456959
105.394435
105.369005
105.359446
105.357035
105.359446
105.369005
105.394435
105.456959
105.603313
105.929875
106.622763
108.016702
110.668172
115.424725
123.455403
136.197090
155.183192
181.762513
216.776361
214.395842
179.296467
152.650819
133.615905
120.840211
112.787172
108.016699
105.357054
103.958563
103.263276
102.935513
102.788587
102.725804
102.700262
102.690659
102.688236
102.690659
102.700262
102.725804
102.788587
102.935513
103.263276
103.958564
105.357053
108.016702
112.787168
120.840215
133.615895
152.650823
179.296502
214.395842
213.146024
178.001674
151.320930
132.260012
119.466055
111.400873
106.622760
103.958564
102.557506
101.860845
101.532384
101.385120
101.322182
101.296572
101.286941
101.284511
101.286941
101.296572
101.322182
101.385120
101.532384
101.860845
102.557507
103.958564
106.622764
111.400869
119.466059
132.260001
151.320934
178.001708
213.146024
212.525658
177.358936
150.660640
131.586621
118.783380
110.711959
105.929871
103.263276
101.860844
101.163436
100.834589
100.687136
100.624108
100.598459
100.588813
100.586378
100.588813
100.598459
100.624108
100.687136
100.834589
101.163436
101.860845
103.263275
105.929875
110.711955
118.783384
131.586610
150.660643
177.358971
212.525658
212.233712
177.056439
150.349818
131.269540
118.461822
110.387359
105.603309
102.935513
101.532383
100.834589
100.505540
100.357985
100.294909
100.269238
100.259582
100.257146
100.259582
100.269238
100.294909
100.357985
100.505539
100.834589
101.532384
102.935512
105.603313
110.387355
118.461826
131.269529
150.349821
177.056473
212.233712
212.103072
176.921068
150.210692
131.127570
118.317799
110.241926
105.456955
102.788587
101.385119
100.687136
100.357985
100.210379
100.147278
100.121595
100.111935
100.109497
100.111935
100.121595
100.147278
100.210379
100.357985
100.687136
101.385120
102.788587
105.456959
110.241922
118.317803
131.127559
150.210696
176.921102
212.103072
212.047348
176.863322
150.151332
131.066979
118.256311
110.179815
105.394432
102.725804
101.322180
100.624108
100.294909
100.147278
100.084165
100.058476
100.048813
100.046374
100.048813
100.058476
100.084165
100.147278
100.294909
100.624109
101.322181
102.725803
105.394435
110.179811
118.256315
131.066967
150.151335
176.863356
212.047348
212.024719
176.839869
150.127219
131.042358
118.231317
110.154560
105.369002
102.700262
101.296570
100.598459
100.269238
100.121595
100.058476
100.032784
100.023120
100.020681
100.023120
100.032784
100.058476
100.121595
100.269238
100.598459
101.296571
102.700261
105.369005
110.154556
118.231321
131.042347
150.127222
176.839903
212.024718
212.016224
176.831065
150.118166
131.033112
118.221928
110.145070
105.359443
102.690659
101.286940
100.588812
100.259583
100.111935
100.048813
100.023120
100.013456
100.011017
100.013456
100.023120
100.048813
100.111935
100.259582
100.588813
101.286941
102.690658
105.359446
110.145065
118.221932
131.033101
150.118169
176.831099
212.016224
212.014083
176.828846
150.115884
131.030781
118.219561
110.142676
105.357031
102.688236
101.284510
100.586378
100.257146
100.109497
100.046374
100.020681
100.011017
100.008577
100.011017
100.020681
100.046374
100.109497
100.257145
100.586378
101.284511
102.688235
105.357035
110.142672
118.219565
131.030770
150.115887
176.828880
212.014083
212.016224
176.831065
150.118166
131.033112
118.221928
110.145070
105.359443
102.690659
101.286940
100.588812
100.259583
100.111935
100.048813
100.023120
100.013456
100.011017
100.013456
100.023120
100.048813
100.111935
100.259582
100.588813
101.286941
102.690658
105.359446
110.145065
118.221932
131.033101
150.118169
176.831099
212.016224
212.024719
176.839869
150.127219
131.042358
118.231317
110.154560
105.369002
102.700262
101.296570
100.598459
100.269238
100.121595
100.058476
100.032784
100.023120
100.020681
100.023120
100.032784
100.058476
100.121595
100.269238
100.598459
101.296571
102.700261
105.369005
110.154556
118.231321
131.042347
150.127222
176.839903
212.024718
212.047348
176.863322
150.151332
131.066979
118.256311
110.179815
105.394432
102.725804
101.322180
100.624108
100.294909
100.147278
100.084165
100.058476
100.048813
100.046374
100.048813
100.058476
100.084165
100.147278
100.294909
100.624109
101.322181
102.725803
105.394435
110.179811
118.256315
131.066967
150.151335
176.863356
212.047348
212.103072
176.921068
150.210692
131.127570
118.317799
110.241926
105.456955
102.788587
101.385119
100.687136
100.357985
100.210379
100.147278
100.121595
100.111935
100.109497
100.111935
100.121595
100.147278
100.210379
100.357985
100.687136
101.385120
102.788587
105.456959
110.241922
118.317803
131.127559
150.210696
176.921102
212.103072
212.233712
177.056439
150.349818
131.269540
118.461822
110.387359
105.603309
102.935513
101.532383
100.834589
100.505540
100.357985
100.294909
100.269238
100.259583
100.257146
100.259583
100.269238
100.294909
100.357985
100.505540
100.834589
101.532384
102.935513
105.603313
110.387355
118.461826
131.269529
150.349822
177.056474
212.233712
212.525658
177.358936
150.660640
131.586621
118.783380
110.711959
105.929871
103.263276
101.860844
101.163436
100.834589
100.687136
100.624108
100.598459
100.588812
100.586378
100.588812
100.598459
100.624108
100.687136
100.834589
101.163436
101.860845
103.263275
105.929874
110.711955
118.783384
131.586610
150.660643
177.358971
212.525658
213.146025
178.001674
151.320931
132.260013
119.466056
111.400874
106.622761
103.958565
102.557507
101.860846
101.532385
101.385121
101.322182
101.296572
101.286942
101.284512
101.286942
101.296572
101.322182
101.385121
101.532385
101.860846
102.557508
103.958565
106.622764
111.400870
119.466060
132.260002
151.320935
178.001709
213.146025
214.395841
179.296466
152.650818
133.615904
120.840210
112.787171
108.016698
105.357053
103.958563
103.263275
102.935513
102.788587
102.725803
102.700261
102.690659
102.688236
102.690659
102.700261
102.725804
102.788587
102.935512
103.263276
103.958564
105.357053
108.016702
112.787167
120.840215
133.615894
152.650823
179.296502
214.395842
216.776363
181.762481
155.183191
136.197104
123.455402
115.424733
110.668172
108.016706
106.622766
105.929879
105.603317
105.456963
105.394439
105.369009
105.359451
105.357039
105.359451
105.369009
105.394439
105.456963
105.603317
105.929879
106.622768
108.016706
110.668176
115.424730
123.455408
136.197095
155.183197
181.762518
216.776366
221.052125
186.191507
159.730590
140.831025
128.149068
120.157336
115.424725
112.787170
111.400871
110.711958
110.387358
110.241926
110.179814
110.154559
110.145069
110.142675
110.145069
110.154559
110.179814
110.241926
110.387358
110.711958
111.400873
112.787171
115.424729
120.157334
128.149075
140.831019
159.730599
186.191547
221.052131
228.279069
193.677052
167.414950
148.659826
136.076857
128.149068
123.455393
120.840209
119.466052
118.783378
118.461821
118.317798
118.256309
118.231316
118.221927
118.219559
118.221927
118.231316
118.256309
118.317798
118.461820
118.783379
119.466054
120.840209
123.455398
128.149066
136.076866
148.659823
167.414963
193.677097
228.279082
239.756644
205.564694
179.616580
161.088342
148.659825
140.831024
136.197094
133.615902
132.260009
131.586619
131.269538
131.127568
131.066976
131.042356
131.033110
131.030778
131.033110
131.042356
131.066976
131.127568
131.269538
131.586619
132.260010
133.615903
136.197100
140.831024
148.659836
161.088344
179.616601
205.564749
239.756667
256.872936
223.291714
197.809621
179.616578
167.414947
159.730587
155.183180
152.650815
151.320925
150.660636
150.349815
150.210689
150.151329
150.127216
150.118163
150.115880
150.118163
150.127216
150.151329
150.210689
150.349815
150.660637
151.320927
152.650816
155.183187
159.730589
167.414962
179.616586
197.809652
223.291786
256.872978
280.850133
248.123547
223.291775
205.564757
193.677115
186.191571
181.762538
179.296531
178.001737
177.359001
177.056504
176.921132
176.863386
176.839933
176.831130
176.828911
176.831130
176.839933
176.863386
176.921133
177.056504
177.359001
178.001739
179.296532
181.762544
186.191574
193.677132
205.564770
223.291820
248.123644
280.850217
312.451127
280.850051
256.872934
239.756643
228.279069
221.052124
216.776356
214.395841
213.146022
212.525658
212.233712
212.103071
212.047348
212.024718
212.016224
212.014083
212.016224
212.024718
212.047348
212.103072
212.233711
212.525658
213.146024
214.395842
216.776362
221.052128
228.279086
239.756658
256.872982
280.850178
312.451279
